unknown system                          
   1.00000000000000     
     0.000000    2.837700    2.837700
     2.837700    0.000000    2.837700
     2.837700    2.837700    0.000000
   Ge
     2
Direct
  0.750000  0.750000  0.750000
  0.500000  0.500000  0.500000
 
   28   28   28
 0.69857     0.72240     0.79715     0.93211      1.1409      1.4392      1.8408      2.3537      2.9741      3.6794    
  4.4237      5.1374      5.7360      6.1364      6.2774      6.1364      5.7360      5.1373      4.4236      3.6794    
  2.9741      2.3538      1.8408      1.4392      1.1409     0.93211     0.79715     0.72240     0.72240     0.76182    
 0.84542     0.98208      1.1834      1.4614      1.8250      2.2760      2.8036      3.3798      3.9585      4.4785    
  4.8737      5.0876      5.0876      4.8737      4.4785      3.9585      3.3798      2.8036      2.2761      1.8250    
  1.4614      1.1834     0.98207     0.84541     0.76182     0.72240     0.79715     0.84542     0.93162      1.0638    
  1.2517      1.5041      1.8261      2.2145      2.6535      3.1135      3.5509      3.9150      4.1571      4.2421    
  4.1571      3.9150      3.5509      3.1135      2.6536      2.2145      1.8261      1.5041      1.2516      1.0638    
 0.93162     0.84541     0.79715     0.78165     0.93211     0.98208      1.0638      1.1848      1.3533      1.5759    
  1.8540      2.1806      2.5372      2.8941      3.2131      3.4543      3.5844      3.5844      3.4543      3.2131    
  2.8941      2.5372      2.1806      1.8540      1.5759      1.3533      1.1848      1.0638     0.98207     0.93210    
 0.90851     0.90852      1.1409      1.1834      1.2517      1.3533      1.4957      1.6834      1.9151      2.1806    
  2.4603      2.7264      2.9474      3.0939      3.1453      3.0939      2.9474      2.7264      2.4603      2.1806    
  1.9151      1.6835      1.4957      1.3533      1.2517      1.1834      1.1409      1.1181      1.1110      1.1181    
  1.4392      1.4614      1.5041      1.5759      1.6834      1.8296      2.0106      2.2145      2.4219      2.6088    
  2.7504      2.8269      2.8269      2.7504      2.6088      2.4219      2.2145      2.0106      1.8296      1.6835    
  1.5759      1.5041      1.4614      1.4392      1.4296      1.4265      1.4264      1.4296      1.8408      1.8250    
  1.8261      1.8540      1.9151      2.0106      2.1350      2.2760      2.4161      2.5353      2.6154      2.6436    
  2.6154      2.5353      2.4161      2.2760      2.1350      2.0106      1.9151      1.8540      1.8261      1.8250    
  1.8408      1.8625      1.8802      1.8869      1.8802      1.8625      2.3537      2.2760      2.2145      2.1806    
  2.1806      2.2145      2.2760      2.3537      2.4325      2.4964      2.5322      2.5322      2.4964      2.4325    
  2.3538      2.2760      2.2144      2.1805      2.1805      2.2144      2.2760      2.3538      2.4325      2.4964    
  2.5322      2.5322      2.4964      2.4325      2.9741      2.8036      2.6535      2.5372      2.4603      2.4219    
  2.4161      2.4325      2.4583      2.4805      2.4891      2.4805      2.4583      2.4325      2.4161      2.4219    
  2.4603      2.5372      2.6536      2.8036      2.9741      3.1451      3.2924      3.3923      3.4278      3.3924    
  3.2924      3.1451      3.6794      3.3798      3.1135      2.8941      2.7264      2.6088      2.5353      2.4964    
  2.4805      2.4761      2.4761      2.4805      2.4965      2.5353      2.6088      2.7264      2.8941      3.1135    
  3.3799      3.6794      3.9872      4.2688      4.4856      4.6039      4.6039      4.4856      4.2688      3.9872    
  4.4237      3.9585      3.5509      3.2131      2.9474      2.7504      2.6154      2.5322      2.4891      2.4761    
  2.4891      2.5322      2.6154      2.7504      2.9474      3.2131      3.5509      3.9586      4.4237      4.9183    
  5.3972      5.8026      6.0757      6.1722      6.0757      5.8026      5.3972      4.9183      5.1374      4.4785    
  3.9150      3.4543      3.0939      2.8269      2.6436      2.5322      2.4805      2.4805      2.5322      2.6436    
  2.8269      3.0939      3.4543      3.9150      4.4785      5.1374      5.8648      6.6077      7.2872      7.8117    
  8.0986      8.0986      7.8117      7.2872      6.6077      5.8648      5.7360      4.8737      4.1571      3.5844    
  3.1453      2.8269      2.6154      2.4964      2.4583      2.4965      2.6154      2.8269      3.1452      3.5844    
  4.1571      4.8737      5.7360      6.7248      7.7858      8.8231      9.7086      10.309      10.522      10.309    
  9.7086      8.8231      7.7857      6.7248      6.1364      5.0876      4.2421      3.5844      3.0939      2.7504    
  2.5353      2.4325      2.4325      2.5353      2.7504      3.0939      3.5844      4.2421      5.0876      6.1364    
  7.3841      8.7856      10.238      11.581      12.613      13.170      13.170      12.613      11.581      10.238    
  8.7856      7.3841      6.2774      5.0876      4.1571      3.4543      2.9474      2.6088      2.4161      2.3538    
  2.4161      2.6088      2.9474      3.4543      4.1571      5.0876      6.2775      7.7431      9.4599      11.334    
  13.165      14.671      15.645      15.980      15.645      14.671      13.165      11.334      9.4599      7.7430    
  6.1364      4.8737      3.9150      3.2131      2.7264      2.4219      2.2760      2.2760      2.4219      2.7264    
  3.2131      3.9150      4.8737      6.1364      7.7431      9.6983      11.933      14.212      16.177      17.575    
  18.289      18.289      17.575      16.177      14.212      11.933      9.6983      7.7431      5.7360      4.4785    
  3.5509      2.8941      2.4603      2.2145      2.1350      2.2144      2.4603      2.8941      3.5509      4.4785    
  5.7360      7.3841      9.4599      11.933      14.575      16.959      18.756      19.831      20.182      19.831    
  18.756      16.959      14.575      11.933      9.4599      7.3841      5.1373      3.9585      3.1135      2.5372    
  2.1806      2.0106      2.0106      2.1805      2.5372      3.1135      3.9586      5.1374      6.7248      8.7856    
  11.334      14.212      16.959      19.147      20.571      21.241      21.241      20.571      19.147      16.959    
  14.212      11.334      8.7856      6.7248      4.4236      3.3798      2.6536      2.1806      1.9151      1.8296    
  1.9151      2.1805      2.6536      3.3799      4.4237      5.8648      7.7858      10.238      13.165      16.177    
  18.756      20.571      21.570      21.877      21.570      20.571      18.756      16.177      13.165      10.238    
  7.7858      5.8648      3.6794      2.8036      2.2145      1.8540      1.6835      1.6835      1.8540      2.2144    
  2.8036      3.6794      4.9183      6.6077      8.8231      11.581      14.671      17.575      19.831      21.241    
  21.877      21.877      21.241      19.831      17.575      14.671      11.581      8.8231      6.6077      4.9183    
  2.9741      2.2761      1.8261      1.5759      1.4957      1.5759      1.8261      2.2760      2.9741      3.9872    
  5.3972      7.2872      9.7086      12.613      15.645      18.289      20.182      21.241      21.570      21.241    
  20.182      18.289      15.645      12.613      9.7086      7.2872      5.3972      3.9872      2.3538      1.8250    
  1.5041      1.3533      1.3533      1.5041      1.8250      2.3538      3.1451      4.2688      5.8026      7.8117    
  10.309      13.170      15.980      18.289      19.831      20.571      20.571      19.831      18.289      15.980    
  13.170      10.309      7.8117      5.8026      4.2688      3.1451      1.8408      1.4614      1.2516      1.1848    
  1.2517      1.4614      1.8408      2.4325      3.2924      4.4856      6.0757      8.0986      10.522      13.170    
  15.645      17.575      18.756      19.147      18.756      17.575      15.645      13.170      10.522      8.0986    
  6.0757      4.4856      3.2924      2.4325      1.4392      1.1834      1.0638      1.0638      1.1834      1.4392    
  1.8625      2.4964      3.3923      4.6039      6.1722      8.0986      10.309      12.613      14.671      16.177    
  16.959      16.959      16.177      14.671      12.613      10.309      8.0986      6.1722      4.6039      3.3924    
  2.4964      1.8625      1.1409     0.98207     0.93162     0.98207      1.1409      1.4296      1.8802      2.5322    
  3.4278      4.6039      6.0757      7.8117      9.7086      11.581      13.165      14.212      14.575      14.212    
  13.165      11.581      9.7086      7.8117      6.0757      4.6039      3.4278      2.5322      1.8802      1.4296    
 0.93211     0.84541     0.84541     0.93210      1.1181      1.4265      1.8869      2.5322      3.3924      4.4856    
  5.8026      7.2872      8.8231      10.238      11.334      11.933      11.933      11.334      10.238      8.8231    
  7.2872      5.8026      4.4856      3.3924      2.5322      1.8869      1.4265      1.1181     0.79715     0.76182    
 0.79715     0.90851      1.1110      1.4264      1.8802      2.4964      3.2924      4.2688      5.3972      6.6077    
  7.7857      8.7856      9.4599      9.6983      9.4599      8.7856      7.7858      6.6077      5.3972      4.2688    
  3.2924      2.4964      1.8802      1.4265      1.1110     0.90851     0.72240     0.72240     0.78165     0.90852    
  1.1181      1.4296      1.8625      2.4325      3.1451      3.9872      4.9183      5.8648      6.7248      7.3841    
  7.7430      7.7431      7.3841      6.7248      5.8648      4.9183      3.9872      3.1451      2.4325      1.8625    
  1.4296      1.1181     0.90851     0.78165     0.72240     0.76182     0.84542     0.98208      1.1834      1.4614    
  1.8250      2.2760      2.8036      3.3798      3.9585      4.4785      4.8737      5.0876      5.0876      4.8737    
  4.4785      3.9585      3.3798      2.8036      2.2761      1.8250      1.4614      1.1834     0.98207     0.84542    
 0.76182     0.72240     0.76182     0.80944     0.89405      1.0230      1.2054      1.4497      1.7605      2.1350    
  2.5584      3.0020      3.4242      3.7760      4.0100      4.0922      4.0100      3.7759      3.4242      3.0020    
  2.5584      2.1350      1.7605      1.4497      1.2054      1.0230     0.89405     0.80944     0.76181     0.74647    
 0.84542     0.89405     0.97243      1.0868      1.2444      1.4512      1.7086      2.0106      2.3405      2.6711    
  2.9672      3.1916      3.3127      3.3127      3.1916      2.9672      2.6711      2.3405      2.0106      1.7086    
  1.4512      1.2444      1.0868     0.97242     0.89405     0.84541     0.82216     0.82217     0.98208      1.0230    
  1.0868      1.1795      1.3074      1.4744      1.6798      1.9151      2.1633      2.4001      2.5972      2.7282    
  2.7741      2.7282      2.5972      2.4001      2.1633      1.9151      1.6798      1.4744      1.3073      1.1795    
  1.0868      1.0230     0.98207     0.95931     0.95201     0.95931      1.1834      1.2054      1.2444      1.3074    
  1.4001      1.5252      1.6798      1.8540      2.0315      2.1915      2.3129      2.3785      2.3785      2.3129    
  2.1915      2.0315      1.8540      1.6798      1.5252      1.4001      1.3074      1.2444      1.2054      1.1834    
  1.1723      1.1679      1.1679      1.1723      1.4614      1.4497      1.4512      1.4744      1.5252      1.6048    
  1.7086      1.8262      1.9425      2.0411      2.1071      2.1303      2.1071      2.0411      1.9425      1.8262    
  1.7086      1.6048      1.5252      1.4744      1.4512      1.4497      1.4614      1.4775      1.4904      1.4953    
  1.4904      1.4774      1.8250      1.7605      1.7086      1.6798      1.6798      1.7086      1.7605      1.8250    
  1.8893      1.9407      1.9691      1.9691      1.9407      1.8893      1.8250      1.7605      1.7086      1.6798    
  1.6798      1.7086      1.7605      1.8250      1.8893      1.9407      1.9691      1.9691      1.9407      1.8893    
  2.2760      2.1350      2.0106      1.9151      1.8540      1.8262      1.8250      1.8408      1.8625      1.8802    
  1.8869      1.8802      1.8625      1.8408      1.8250      1.8261      1.8540      1.9151      2.0106      2.1350    
  2.2760      2.4161      2.5353      2.6154      2.6436      2.6154      2.5353      2.4161      2.8036      2.5584    
  2.3405      2.1633      2.0315      1.9425      1.8893      1.8625      1.8520      1.8493      1.8493      1.8520    
  1.8625      1.8893      1.9424      2.0314      2.1633      2.3405      2.5584      2.8036      3.0536      3.2798    
  3.4520      3.5453      3.5453      3.4521      3.2798      3.0536      3.3798      3.0020      2.6711      2.4001    
  2.1915      2.0411      1.9407      1.8802      1.8493      1.8400      1.8493      1.8802      1.9407      2.0410    
  2.1915      2.4001      2.6711      3.0020      3.3798      3.7787      4.1605      4.4797      4.6927      4.7675    
  4.6927      4.4798      4.1605      3.7788      3.9585      3.4242      2.9672      2.5972      2.3129      2.1071    
  1.9691      1.8869      1.8493      1.8493      1.8869      1.9692      2.1071      2.3129      2.5972      2.9672    
  3.4243      3.9585      4.5439      5.1347      5.6683      6.0756      6.2968      6.2968      6.0756      5.6682    
  5.1347      4.5440      4.4785      3.7760      3.1916      2.7282      2.3785      2.1303      1.9691      1.8802    
  1.8520      1.8802      1.9692      2.1303      2.3785      2.7282      3.1916      3.7760      4.4785      5.2777    
  6.1253      6.9440      7.6356      8.1007      8.2650      8.1007      7.6356      6.9440      6.1253      5.2777    
  4.8737      4.0100      3.3127      2.7741      2.3785      2.1071      1.9407      1.8625      1.8625      1.9407    
  2.1071      2.3785      2.7741      3.3127      4.0101      4.8737      5.8930      7.0255      8.1866      9.2512    
  10.074      10.524      10.524      10.074      9.2512      8.1866      7.0256      5.8930      5.0876      4.0922    
  3.3127      2.7282      2.3129      2.0411      1.8893      1.8408      1.8893      2.0410      2.3129      2.7282    
  3.3127      4.0923      5.0876      6.3046      7.7159      9.2421      10.742      12.027      12.899      13.209    
  12.899      12.027      10.742      9.2421      7.7159      6.3046      5.0876      4.0100      3.1916      2.5972    
  2.1915      1.9425      1.8250      1.8250      1.9424      2.1915      2.5972      3.1916      4.0101      5.0876    
  6.4495      8.0917      9.9543      11.898      13.705      15.102      15.858      15.858      15.102      13.705    
  11.898      9.9543      8.0918      6.4495      4.8737      3.7759      2.9672      2.4001      2.0315      1.8262    
  1.7605      1.8261      2.0314      2.4001      2.9672      3.7760      4.8737      6.3046      8.0917      10.206    
  12.532      14.839      16.780      18.058      18.502      18.058      16.780      14.839      12.532      10.206    
  8.0918      6.3046      4.4785      3.4242      2.6711      2.1633      1.8540      1.7086      1.7086      1.8540    
  2.1633      2.6711      3.4243      4.4785      5.8930      7.7159      9.9543      12.532      15.238      17.680    
  19.490      20.443      20.443      19.490      17.680      15.238      12.532      9.9544      7.7159      5.8930    
  3.9585      3.0020      2.3405      1.9151      1.6798      1.6048      1.6798      1.9151      2.3405      3.0020    
  3.9585      5.2777      7.0255      9.2421      11.898      14.839      17.680      19.983      21.454      21.955    
  21.454      19.983      17.680      14.839      11.898      9.2421      7.0256      5.2777      3.3798      2.5584    
  2.0106      1.6798      1.5252      1.5252      1.6798      2.0106      2.5584      3.3798      4.5439      6.1253    
  8.1866      10.742      13.705      16.780      19.490      21.454      22.468      22.468      21.454      19.490    
  16.780      13.705      10.742      8.1866      6.1253      4.5439      2.8036      2.1350      1.7086      1.4744    
  1.4001      1.4744      1.7086      2.1350      2.8036      3.7787      5.1347      6.9440      9.2512      12.027    
  15.102      18.058      20.443      21.955      22.468      21.955      20.443      18.058      15.102      12.027    
  9.2511      6.9440      5.1347      3.7787      2.2761      1.7605      1.4512      1.3073      1.3074      1.4512    
  1.7605      2.2760      3.0536      4.1605      5.6683      7.6356      10.074      12.899      15.858      18.502    
  20.443      21.454      21.454      20.443      18.502      15.858      12.899      10.074      7.6355      5.6683    
  4.1605      3.0537      1.8250      1.4497      1.2444      1.1795      1.2444      1.4497      1.8250      2.4161    
  3.2798      4.4797      6.0756      8.1007      10.524      13.209      15.858      18.058      19.490      19.983    
  19.490      18.058      15.858      13.209      10.524      8.1007      6.0756      4.4798      3.2798      2.4161    
  1.4614      1.2054      1.0868      1.0868      1.2054      1.4614      1.8893      2.5353      3.4520      4.6927    
  6.2968      8.2650      10.524      12.899      15.102      16.780      17.680      17.680      16.780      15.102    
  12.899      10.524      8.2650      6.2968      4.6927      3.4521      2.5353      1.8893      1.1834      1.0230    
 0.97242      1.0230      1.1834      1.4775      1.9407      2.6154      3.5453      4.7675      6.2968      8.1007    
  10.074      12.027      13.705      14.839      15.238      14.839      13.705      12.027      10.074      8.1007    
  6.2968      4.7676      3.5453      2.6154      1.9407      1.4774     0.98207     0.89405     0.89405     0.98207    
  1.1723      1.4904      1.9691      2.6436      3.5453      4.6927      6.0756      7.6356      9.2512      10.742    
  11.898      12.532      12.532      11.898      10.742      9.2511      7.6355      6.0756      4.6927      3.5453    
  2.6436      1.9691      1.4904      1.1723     0.84542     0.80944     0.84541     0.95931      1.1679      1.4953    
  1.9691      2.6154      3.4521      4.4798      5.6682      6.9440      8.1866      9.2421      9.9543      10.206    
  9.9544      9.2421      8.1866      6.9440      5.6683      4.4798      3.4521      2.6154      1.9691      1.4953    
  1.1678     0.95931     0.76182     0.76181     0.82216     0.95201      1.1679      1.4904      1.9407      2.5353    
  3.2798      4.1605      5.1347      6.1253      7.0256      7.7159      8.0918      8.0918      7.7159      7.0256    
  6.1253      5.1347      4.1605      3.2798      2.5353      1.9407      1.4904      1.1678     0.95201     0.82217    
 0.72240     0.74647     0.82217     0.95931      1.1723      1.4774      1.8893      2.4161      3.0536      3.7788    
  4.5440      5.2777      5.8930      6.3046      6.4495      6.3046      5.8930      5.2777      4.5439      3.7787    
  3.0537      2.4161      1.8893      1.4774      1.1723     0.95931     0.82217     0.74648     0.79715     0.84541    
 0.93162      1.0638      1.2517      1.5041      1.8262      2.2145      2.6535      3.1135      3.5509      3.9150    
  4.1571      4.2421      4.1571      3.9150      3.5509      3.1135      2.6536      2.2145      1.8261      1.5041    
  1.2517      1.0638     0.93163     0.84541     0.79715     0.78165     0.84541     0.89405     0.97243      1.0868    
  1.2444      1.4512      1.7086      2.0106      2.3405      2.6711      2.9672      3.1915      3.3127      3.3127    
  3.1915      2.9672      2.6711      2.3405      2.0106      1.7086      1.4512      1.2444      1.0868     0.97243    
 0.89405     0.84541     0.82216     0.82217     0.93162     0.97243      1.0351      1.1252      1.2483      1.4084    
  1.6048      1.8296      2.0669      2.2936      2.4825      2.6083      2.6524      2.6083      2.4826      2.2936    
  2.0670      1.8296      1.6048      1.4084      1.2483      1.1252      1.0351     0.97242     0.93161     0.90866    
 0.90125     0.90866      1.0638      1.0868      1.1252      1.1846      1.2703      1.3846      1.5252      1.6834    
  1.8449      1.9908      2.1018      2.1619      2.1619      2.1018      1.9908      1.8449      1.6834      1.5252    
  1.3846      1.2703      1.1846      1.1252      1.0868      1.0638      1.0512      1.0457      1.0457      1.0512    
  1.2517      1.2444      1.2483      1.2703      1.3153      1.3846      1.4744      1.5759      1.6763      1.7616    
  1.8188      1.8389      1.8188      1.7616      1.6763      1.5759      1.4744      1.3846      1.3153      1.2703    
  1.2483      1.2444      1.2517      1.2628      1.2720      1.2755      1.2720      1.2628      1.5041      1.4512    
  1.4084      1.3846      1.3846      1.4084      1.4512      1.5041      1.5566      1.5984      1.6215      1.6215    
  1.5984      1.5566      1.5041      1.4512      1.4084      1.3846      1.3846      1.4084      1.4512      1.5041    
  1.5566      1.5984      1.6215      1.6215      1.5984      1.5566      1.8262      1.7086      1.6048      1.5252    
  1.4744      1.4512      1.4497      1.4614      1.4774      1.4904      1.4953      1.4904      1.4775      1.4614    
  1.4497      1.4512      1.4744      1.5252      1.6048      1.7086      1.8262      1.9425      2.0411      2.1071    
  2.1303      2.1071      2.0411      1.9425      2.2145      2.0106      1.8296      1.6834      1.5759      1.5041    
  1.4614      1.4392      1.4296      1.4265      1.4265      1.4296      1.4392      1.4614      1.5041      1.5759    
  1.6835      1.8296      2.0106      2.2145      2.4219      2.6088      2.7504      2.8269      2.8269      2.7505    
  2.6088      2.4219      2.6535      2.3405      2.0669      1.8449      1.6763      1.5566      1.4774      1.4296    
  1.4048      1.3972      1.4048      1.4296      1.4774      1.5566      1.6763      1.8449      2.0670      2.3405    
  2.6535      2.9832      3.2968      3.5574      3.7302      3.7907      3.7302      3.5574      3.2968      2.9832    
  3.1135      2.6711      2.2936      1.9908      1.7616      1.5984      1.4904      1.4265      1.3972      1.3972    
  1.4264      1.4904      1.5984      1.7616      1.9908      2.2936      2.6711      3.1134      3.5963      4.0797    
  4.5126      4.8404      5.0174      5.0174      4.8404      4.5126      4.0798      3.5963      3.5509      2.9672    
  2.4825      2.1018      1.8188      1.6215      1.4953      1.4265      1.4048      1.4264      1.4953      1.6214    
  1.8188      2.1018      2.4826      2.9672      3.5509      4.2116      4.9061      5.5698      6.1248      6.4954    
  6.6257      6.4954      6.1248      5.5698      4.9061      4.2117      3.9150      3.1915      2.6083      2.1619    
  1.8389      1.6215      1.4904      1.4296      1.4296      1.4904      1.6214      1.8389      2.1619      2.6083    
  3.1916      3.9150      4.7642      5.6985      6.6456      7.5047      8.1630      8.5213      8.5213      8.1630    
  7.5047      6.6456      5.6985      4.7642      4.1571      3.3127      2.6524      2.1619      1.8188      1.5984    
  1.4775      1.4392      1.4774      1.5984      1.8188      2.1619      2.6525      3.3127      4.1571      5.1838    
  6.3630      7.6239      8.8503      9.8922      10.596      10.845      10.596      9.8922      8.8503      7.6239    
  6.3630      5.1839      4.2421      3.3127      2.6083      2.1018      1.7616      1.5566      1.4614      1.4614    
  1.5566      1.7616      2.1018      2.6083      3.3127      4.2421      5.4109      6.8075      8.3747      9.9949    
  11.491      12.653      13.291      13.291      12.653      11.491      9.9949      8.3747      6.8075      5.4110    
  4.1571      3.1915      2.4826      1.9908      1.6763      1.5041      1.4497      1.5041      1.6763      1.9908    
  2.4826      3.1916      4.1571      5.4109      6.9639      8.7836      10.768      12.733      14.426      15.581    
  15.992      15.581      14.426      12.733      10.768      8.7836      6.9639      5.4110      3.9150      2.9672    
  2.2936      1.8449      1.5759      1.4512      1.4512      1.5759      1.8449      2.2936      2.9672      3.9150    
  5.1838      6.8075      8.7836      11.042      13.415      15.636      17.376      18.333      18.333      17.376    
  15.636      13.415      11.042      8.7836      6.8075      5.1839      3.5509      2.6711      2.0670      1.6834    
  1.4744      1.4084      1.4744      1.6835      2.0670      2.6711      3.5509      4.7642      6.3630      8.3747    
  10.768      13.415      16.066      18.363      19.921      20.471      19.921      18.363      16.066      13.415    
  10.768      8.3747      6.3630      4.7642      3.1135      2.3405      1.8296      1.5252      1.3846      1.3846    
  1.5252      1.8296      2.3405      3.1134      4.2116      5.6985      7.6239      9.9949      12.733      15.636    
  18.363      20.481      21.634      21.634      20.481      18.363      15.636      12.733      9.9949      7.6239    
  5.6985      4.2116      2.6536      2.0106      1.6048      1.3846      1.3153      1.3846      1.6048      2.0106    
  2.6535      3.5963      4.9061      6.6456      8.8503      11.491      14.426      17.376      19.921      21.634    
  22.236      21.634      19.921      17.376      14.426      11.491      8.8503      6.6456      4.9061      3.5963    
  2.2145      1.7086      1.4084      1.2703      1.2703      1.4084      1.7086      2.2145      2.9832      4.0797    
  5.5698      7.5047      9.8922      12.653      15.581      18.333      20.471      21.634      21.634      20.471    
  18.333      15.581      12.653      9.8922      7.5047      5.5698      4.0798      2.9832      1.8261      1.4512    
  1.2483      1.1846      1.2483      1.4512      1.8262      2.4219      3.2968      4.5126      6.1248      8.1630    
  10.596      13.291      15.992      18.333      19.921      20.481      19.921      18.333      15.992      13.291    
  10.596      8.1630      6.1248      4.5126      3.2968      2.4219      1.5041      1.2444      1.1252      1.1252    
  1.2444      1.5041      1.9425      2.6088      3.5574      4.8404      6.4954      8.5213      10.845      13.291    
  15.581      17.376      18.363      18.363      17.376      15.581      13.291      10.845      8.5213      6.4954    
  4.8404      3.5574      2.6088      1.9425      1.2517      1.0868      1.0351      1.0868      1.2517      1.5566    
  2.0411      2.7504      3.7302      5.0174      6.6257      8.5213      10.596      12.653      14.426      15.636    
  16.066      15.636      14.426      12.653      10.596      8.5213      6.6257      5.0174      3.7302      2.7504    
  2.0410      1.5566      1.0638     0.97243     0.97242      1.0638      1.2628      1.5984      2.1071      2.8269    
  3.7907      5.0174      6.4954      8.1630      9.8922      11.491      12.733      13.415      13.415      12.733    
  11.491      9.8922      8.1630      6.4954      5.0174      3.7907      2.8269      2.1071      1.5984      1.2628    
 0.93163     0.89405     0.93161      1.0512      1.2720      1.6215      2.1303      2.8269      3.7302      4.8404    
  6.1248      7.5047      8.8503      9.9949      10.768      11.042      10.768      9.9949      8.8503      7.5047    
  6.1248      4.8404      3.7302      2.8269      2.1303      1.6214      1.2720      1.0512     0.84541     0.84541    
 0.90866      1.0457      1.2755      1.6215      2.1071      2.7505      3.5574      4.5126      5.5698      6.6456    
  7.6239      8.3747      8.7836      8.7836      8.3747      7.6239      6.6456      5.5698      4.5126      3.5574    
  2.7504      2.1071      1.6214      1.2755      1.0457     0.90867     0.79715     0.82216     0.90125      1.0457    
  1.2720      1.5984      2.0411      2.6088      3.2968      4.0798      4.9061      5.6985      6.3630      6.8075    
  6.9639      6.8075      6.3630      5.6985      4.9061      4.0798      3.2968      2.6088      2.0410      1.5984    
  1.2720      1.0457     0.90125     0.82217     0.78165     0.82217     0.90866      1.0512      1.2628      1.5566    
  1.9425      2.4219      2.9832      3.5963      4.2117      4.7642      5.1839      5.4110      5.4110      5.1839    
  4.7642      4.2116      3.5963      2.9832      2.4219      1.9425      1.5566      1.2628      1.0512     0.90867    
 0.82217     0.78165     0.93211     0.98207      1.0638      1.1848      1.3533      1.5759      1.8540      2.1806    
  2.5372      2.8941      3.2131      3.4543      3.5844      3.5844      3.4543      3.2131      2.8941      2.5372    
  2.1806      1.8540      1.5759      1.3533      1.1848      1.0638     0.98207     0.93210     0.90851     0.90852    
 0.98207      1.0230      1.0868      1.1795      1.3074      1.4744      1.6798      1.9151      2.1633      2.4001    
  2.5972      2.7282      2.7741      2.7282      2.5972      2.4001      2.1633      1.9151      1.6798      1.4744    
  1.3074      1.1795      1.0868      1.0230     0.98207     0.95930     0.95201     0.95931      1.0638      1.0868    
  1.1252      1.1846      1.2703      1.3846      1.5252      1.6834      1.8449      1.9908      2.1018      2.1619    
  2.1619      2.1018      1.9908      1.8449      1.6835      1.5252      1.3846      1.2703      1.1846      1.1252    
  1.0868      1.0638      1.0512      1.0457      1.0457      1.0512      1.1848      1.1795      1.1846      1.2064    
  1.2496      1.3153      1.4001      1.4957      1.5905      1.6711      1.7252      1.7443      1.7252      1.6711    