unknown system                          
   1.00000000000000     
     0.000000    2.837700    2.837700
     2.837700    0.000000    2.837700
     2.837700    2.837700    0.000000
   Ge
     2
Direct
  0.750000  0.750000  0.750000
  0.500000  0.500000  0.500000
 
   28   28   28
 0.69857269831E+00 0.72239700594E+00 0.79715139997E+00 0.93211186447E+00 0.11409469902E+01
 0.14391836442E+01 0.18408001091E+01 0.23537405547E+01 0.29740785962E+01 0.36793919182E+01
 0.44236583988E+01 0.51373785316E+01 0.57359834954E+01 0.61364070871E+01 0.62774136225E+01
 0.61364069551E+01 0.57359655516E+01 0.51373377902E+01 0.44236174066E+01 0.36793790262E+01
 0.29740994142E+01 0.23537765546E+01 0.18408286931E+01 0.14391942916E+01 0.11409436933E+01
 0.93210591266E+00 0.79715051266E+00 0.72239944530E+00 0.72239700594E+00 0.76181616661E+00
 0.84541512653E+00 0.98207558800E+00 0.11833954242E+01 0.14613683530E+01 0.18250259685E+01
 0.22760236664E+01 0.28035508143E+01 0.33798368032E+01 0.39585441437E+01 0.44784962981E+01
 0.48736762358E+01 0.50876056053E+01 0.50876015666E+01 0.48736615334E+01 0.44784728169E+01
 0.39585283868E+01 0.33798466369E+01 0.28035833167E+01 0.22760561326E+01 0.18250396629E+01
 0.14613641921E+01 0.11833860535E+01 0.98206961813E+00 0.84541274944E+00 0.76181503481E+00
 0.72239653383E+00 0.79715139997E+00 0.84541512653E+00 0.93162134631E+00 0.10638158222E+01
 0.12516546074E+01 0.15041235185E+01 0.18261498956E+01 0.22144511769E+01 0.26535453227E+01
 0.31134540864E+01 0.35508788437E+01 0.39149697191E+01 0.41571073089E+01 0.42421034251E+01
 0.41571016961E+01 0.39149641190E+01 0.35508825146E+01 0.31134720373E+01 0.26535699845E+01
 0.22144666109E+01 0.18261473703E+01 0.15041102234E+01 0.12516443374E+01 0.10638136426E+01
 0.93162135239E+00 0.84541159023E+00 0.79714673866E+00 0.78165162028E+00 0.93211186447E+00
 0.98207558800E+00 0.10638158222E+01 0.11848182758E+01 0.13533154221E+01 0.15758694191E+01
 0.18539973194E+01 0.21805695657E+01 0.25372115657E+01 0.28940942637E+01 0.32131033550E+01
 0.34543309281E+01 0.35844414166E+01 0.35844405487E+01 0.34543305193E+01 0.32131068664E+01
 0.28941008815E+01 0.25372156026E+01 0.21805663845E+01 0.18539888831E+01 0.15758626579E+01
 0.13533149419E+01 0.11848216391E+01 0.10638167589E+01 0.98207098469E+00 0.93210487433E+00
 0.90851473730E+00 0.90851805345E+00 0.11409469902E+01 0.11833954242E+01 0.12516546074E+01
 0.13533154221E+01 0.14957332858E+01 0.16834498656E+01 0.19150694585E+01 0.21805709133E+01
 0.24602794187E+01 0.27264237851E+01 0.29474103959E+01 0.30939332714E+01 0.31452667608E+01
 0.30939312490E+01 0.29474063292E+01 0.27264175148E+01 0.24602717860E+01 0.21805653519E+01
 0.19150703987E+01 0.16834579712E+01 0.14957428773E+01 0.13533189374E+01 0.12516502242E+01
 0.11833884308E+01 0.11409430940E+01 0.11181193345E+01 0.11109617006E+01 0.11181198560E+01
 0.14391836442E+01 0.14613683530E+01 0.15041235185E+01 0.15758694191E+01 0.16834498656E+01
 0.18296145239E+01 0.20105551800E+01 0.22144523380E+01 0.24219383226E+01 0.26088053242E+01
 0.27504473884E+01 0.28268615576E+01 0.28268596152E+01 0.27504419696E+01 0.26087991099E+01
 0.24219372558E+01 0.22144615135E+01 0.20105728353E+01 0.18296316155E+01 0.16834565922E+01
 0.15758630423E+01 0.15041108315E+01 0.14613603855E+01 0.14391863801E+01 0.14295942875E+01
 0.14264527599E+01 0.14264479696E+01 0.14295853180E+01 0.18408001091E+01 0.18250259685E+01
 0.18261498956E+01 0.18539973194E+01 0.19150694585E+01 0.20105551800E+01 0.21349715938E+01
 0.22760215961E+01 0.24160880347E+01 0.25352807255E+01 0.26153690091E+01 0.26435902973E+01
 0.26153663287E+01 0.25352810306E+01 0.24160989646E+01 0.22760447010E+01 0.21349966945E+01
 0.20105666508E+01 0.19150605964E+01 0.18539771878E+01 0.18261346662E+01 0.18250248639E+01
 0.18408105284E+01 0.18625186112E+01 0.18802071898E+01 0.18869323209E+01 0.18801987866E+01
 0.18625054029E+01 0.23537405547E+01 0.22760236664E+01 0.22144511769E+01 0.21805695657E+01
 0.21805709133E+01 0.22144523380E+01 0.22760215961E+01 0.23537378241E+01 0.24325035860E+01
 0.24964284245E+01 0.25321945798E+01 0.25321935702E+01 0.24964308090E+01 0.24325180842E+01
 0.23537624269E+01 0.22760402528E+01 0.22144489038E+01 0.21805465274E+01 0.21805438592E+01
 0.22144438650E+01 0.22760362576E+01 0.23537577858E+01 0.24325112572E+01 0.24964255488E+01
 0.25321931360E+01 0.25321961058E+01 0.24964284788E+01 0.24325039768E+01 0.29740785962E+01
 0.28035508143E+01 0.26535453227E+01 0.25372115657E+01 0.24602794187E+01 0.24219383226E+01
 0.24160880347E+01 0.24325035860E+01 0.24583202733E+01 0.24804899157E+01 0.24891158622E+01
 0.24804917918E+01 0.24583324434E+01 0.24325243956E+01 0.24160996047E+01 0.24219259709E+01
 0.24602514979E+01 0.25371927836E+01 0.26535512196E+01 0.28035734114E+01 0.29740963597E+01
 0.31450855607E+01 0.32923529942E+01 0.33923447443E+01 0.34277986876E+01 0.33923601612E+01
 0.32923696552E+01 0.31450869463E+01 0.36793919182E+01 0.33798368032E+01 0.31134540864E+01
 0.28940942637E+01 0.27264237851E+01 0.26088053242E+01 0.25352807255E+01 0.24964284245E+01
 0.24804899157E+01 0.24760881291E+01 0.24760911340E+01 0.24805029419E+01 0.24964509171E+01
 0.25352956974E+01 0.26087972406E+01 0.27264024757E+01 0.28940855855E+01 0.31134679345E+01
 0.33798576139E+01 0.36793999951E+01 0.39872214850E+01 0.42688045091E+01 0.44856085270E+01
 0.46039033372E+01 0.46039079312E+01 0.44856211620E+01 0.42688202545E+01 0.39872301224E+01
 0.44236583988E+01 0.39585441437E+01 0.35508788437E+01 0.32131033550E+01 0.29474103959E+01
 0.27504473884E+01 0.26153690091E+01 0.25321945798E+01 0.24891158622E+01 0.24760911340E+01
 0.24891314526E+01 0.25322231665E+01 0.26153935887E+01 0.27504481418E+01 0.29473925912E+01
 0.32130936311E+01 0.35508886180E+01 0.39585560976E+01 0.44236548810E+01 0.49182881290E+01
 0.53972266502E+01 0.58026255622E+01 0.60757183751E+01 0.61722462100E+01 0.60757128380E+01
 0.58026223148E+01 0.53972338620E+01 0.49183015124E+01 0.51373785316E+01 0.44784962981E+01
 0.39149697191E+01 0.34543309281E+01 0.30939332714E+01 0.28268615576E+01 0.26435902973E+01
 0.25321935702E+01 0.24804917918E+01 0.24805029419E+01 0.25322231665E+01 0.26436208805E+01
 0.28268672745E+01 0.30939099945E+01 0.34543061586E+01 0.39149664745E+01 0.44785044917E+01
 0.51373778455E+01 0.58648291390E+01 0.66076831061E+01 0.72872308603E+01 0.78117302671E+01
 0.80985929663E+01 0.80985917095E+01 0.78117243617E+01 0.72872226923E+01 0.66076826752E+01
 0.58648364393E+01 0.57359834954E+01 0.48736762358E+01 0.41571073089E+01 0.35844414166E+01
 0.31452667608E+01 0.28268596152E+01 0.26153663287E+01 0.24964308090E+01 0.24583324434E+01
 0.24964509171E+01 0.26153935887E+01 0.28268672745E+01 0.31452394980E+01 0.35844017063E+01
 0.41570918510E+01 0.48736902441E+01 0.57360025970E+01 0.67247895480E+01 0.77857585949E+01
 0.88230649237E+01 0.97085834590E+01 0.10308775489E+02 0.10521609144E+02 0.10308790561E+02
 0.97085921713E+01 0.88230591785E+01 0.77857488492E+01 0.67247781706E+01 0.61364070871E+01
 0.50876056053E+01 0.42421034251E+01 0.35844405487E+01 0.30939312490E+01 0.27504419696E+01
 0.25352810306E+01 0.24325180842E+01 0.24325243956E+01 0.25352956974E+01 0.27504481418E+01
 0.30939099945E+01 0.35844017063E+01 0.42420852028E+01 0.50876277482E+01 0.61364461146E+01
 0.73841413019E+01 0.87856028972E+01 0.10238121655E+02 0.11581118702E+02 0.12613035217E+02
 0.13169501277E+02 0.13169513924E+02 0.12613056659E+02 0.11581126038E+02 0.10238115774E+02
 0.87855907601E+01 0.73841151510E+01 0.62774136225E+01 0.50876015666E+01 0.41571016961E+01
 0.34543305193E+01 0.29474063292E+01 0.26087991099E+01 0.24160989646E+01 0.23537624269E+01
 0.24160996047E+01 0.26087972406E+01 0.29473925912E+01 0.34543061586E+01 0.41570918510E+01
 0.50876277482E+01 0.62774578647E+01 0.77430732297E+01 0.94598948327E+01 0.11333913092E+02
 0.13165438078E+02 0.14671466903E+02 0.15645435928E+02 0.15980415511E+02 0.15645437601E+02
 0.14671463243E+02 0.13165435202E+02 0.11333920786E+02 0.94598990295E+01 0.77430492661E+01
 0.61364069551E+01 0.48736615334E+01 0.39149641190E+01 0.32131068664E+01 0.27264175148E+01
 0.24219372558E+01 0.22760447010E+01 0.22760402528E+01 0.24219259709E+01 0.27264024757E+01
 0.32130936311E+01 0.39149664745E+01 0.48736902441E+01 0.61364461146E+01 0.77430732297E+01
 0.96983169120E+01 0.11932926662E+02 0.14211814630E+02 0.16176983815E+02 0.17574873592E+02
 0.18288721425E+02 0.18288714512E+02 0.17574855412E+02 0.16176968522E+02 0.14211823969E+02
 0.11932960122E+02 0.96983409753E+01 0.77430593613E+01 0.57359655516E+01 0.44784728169E+01
 0.35508825146E+01 0.28941008815E+01 0.24602717860E+01 0.22144615135E+01 0.21349966945E+01
 0.22144489038E+01 0.24602514979E+01 0.28940855855E+01 0.35508886180E+01 0.44785044917E+01
 0.57360025970E+01 0.73841413019E+01 0.94598948327E+01 0.11932926662E+02 0.14575384894E+02
 0.16958666332E+02 0.18756179274E+02 0.19830603094E+02 0.20182007520E+02 0.19830602381E+02
 0.18756176451E+02 0.16958670480E+02 0.14575409971E+02 0.11932967021E+02 0.94599207322E+01
 0.73841304234E+01 0.51373377902E+01 0.39585283868E+01 0.31134720373E+01 0.25372156026E+01
 0.21805653519E+01 0.20105728353E+01 0.20105666508E+01 0.21805465274E+01 0.25371927836E+01
 0.31134679345E+01 0.39585560976E+01 0.51373778455E+01 0.67247895480E+01 0.87856028972E+01
 0.11333913092E+02 0.14211814630E+02 0.16958666332E+02 0.19147439367E+02 0.20570901798E+02
 0.21241206064E+02 0.21241215739E+02 0.20570921927E+02 0.19147455570E+02 0.16958677567E+02
 0.14211833246E+02 0.11333940686E+02 0.87856178654E+01 0.67247716337E+01 0.44236174066E+01
 0.33798466369E+01 0.26535699845E+01 0.21805663845E+01 0.19150703987E+01 0.18296316155E+01
 0.19150605964E+01 0.21805438592E+01 0.26535512196E+01 0.33798576139E+01 0.44236548810E+01
 0.58648291390E+01 0.77857585949E+01 0.10238121655E+02 0.13165438078E+02 0.16176983815E+02
 0.18756179274E+02 0.20570901798E+02 0.21569943709E+02 0.21876749206E+02 0.21569947341E+02
 0.20570908469E+02 0.18756186158E+02 0.16176991581E+02 0.13165454175E+02 0.10238142278E+02
 0.77857610124E+01 0.58648003617E+01 0.36793790262E+01 0.28035833167E+01 0.22144666109E+01
 0.18539888831E+01 0.16834579712E+01 0.16834565922E+01 0.18539771878E+01 0.22144438650E+01
 0.28035734114E+01 0.36793999951E+01 0.49182881290E+01 0.66076831061E+01 0.88230649237E+01
 0.11581118702E+02 0.14671466903E+02 0.17574873592E+02 0.19830603094E+02 0.21241206064E+02
 0.21876749206E+02 0.21876730440E+02 0.21241172228E+02 0.19830590589E+02 0.17574889149E+02
 0.14671494468E+02 0.11581145455E+02 0.88230785744E+01 0.66076703601E+01 0.49182554686E+01
 0.29740994142E+01 0.22760561326E+01 0.18261473703E+01 0.15758626579E+01 0.14957428773E+01
 0.15758630423E+01 0.18261346662E+01 0.22760362576E+01 0.29740963597E+01 0.39872214850E+01
 0.53972266502E+01 0.72872308603E+01 0.97085834590E+01 0.12613035217E+02 0.15645435928E+02
 0.18288721425E+02 0.20182007520E+02 0.21241215739E+02 0.21569947341E+02 0.21241172228E+02
 0.20181978632E+02 0.18288742927E+02 0.15645483849E+02 0.12613072262E+02 0.97085974904E+01
 0.72872245649E+01 0.53972052210E+01 0.39872020438E+01 0.23537765546E+01 0.18250396629E+01
 0.15041102234E+01 0.13533149419E+01 0.13533189374E+01 0.15041108315E+01 0.18250248639E+01
 0.23537577858E+01 0.31450855607E+01 0.42688045091E+01 0.58026255622E+01 0.78117302671E+01
 0.10308775489E+02 0.13169501277E+02 0.15980415511E+02 0.18288714512E+02 0.19830602381E+02
 0.20570921927E+02 0.20570908469E+02 0.19830590589E+02 0.18288742927E+02 0.15980469390E+02
 0.13169536053E+02 0.10308775845E+02 0.78117148665E+01 0.58026110678E+01 0.42687961731E+01
 0.31450909653E+01 0.18408286931E+01 0.14613641921E+01 0.12516443374E+01 0.11848216391E+01
 0.12516502242E+01 0.14613603855E+01 0.18408105284E+01 0.24325112572E+01 0.32923529942E+01
 0.44856085270E+01 0.60757183751E+01 0.80985929663E+01 0.10521609144E+02 0.13169513924E+02
 0.15645437601E+02 0.17574855412E+02 0.18756176451E+02 0.19147455570E+02 0.18756186158E+02
 0.17574889149E+02 0.15645483849E+02 0.13169536053E+02 0.10521592827E+02 0.80985635834E+01
 0.60757044603E+01 0.44856123562E+01 0.32923672985E+01 0.24325321036E+01 0.14391942916E+01
 0.11833860535E+01 0.10638136426E+01 0.10638167589E+01 0.11833884308E+01 0.14391863801E+01
 0.18625186112E+01 0.24964255488E+01 0.33923447443E+01 0.46039033372E+01 0.61722462100E+01
 0.80985917095E+01 0.10308790561E+02 0.12613056659E+02 0.14671463243E+02 0.16176968522E+02
 0.16958670480E+02 0.16958677567E+02 0.16176991581E+02 0.14671494468E+02 0.12613072262E+02
 0.10308775845E+02 0.80985635834E+01 0.61722334538E+01 0.46039124945E+01 0.33923638379E+01
 0.24964453814E+01 0.18625353761E+01 0.11409436933E+01 0.98206961813E+00 0.93162135239E+00
 0.98207098469E+00 0.11409430940E+01 0.14295942875E+01 0.18802071898E+01 0.25321931360E+01
 0.34277986876E+01 0.46039079312E+01 0.60757128380E+01 0.78117243617E+01 0.97085921713E+01
 0.11581126038E+02 0.13165435202E+02 0.14211823969E+02 0.14575409971E+02 0.14211833246E+02
 0.13165454175E+02 0.11581145455E+02 0.97085974904E+01 0.78117148665E+01 0.60757044603E+01
 0.46039124945E+01 0.34278127721E+01 0.25322068730E+01 0.18802162894E+01 0.14295989392E+01
 0.93210591266E+00 0.84541274944E+00 0.84541159023E+00 0.93210487433E+00 0.11181193345E+01
 0.14264527599E+01 0.18869323209E+01 0.25321961058E+01 0.33923601612E+01 0.44856211620E+01
 0.58026223148E+01 0.72872226923E+01 0.88230591785E+01 0.10238115774E+02 0.11333920786E+02
 0.11932960122E+02 0.11932967021E+02 0.11333940686E+02 0.10238142278E+02 0.88230785744E+01
 0.72872245649E+01 0.58026110678E+01 0.44856123562E+01 0.33923638379E+01 0.25322068730E+01
 0.18869390188E+01 0.14264525466E+01 0.11181178135E+01 0.79715051266E+00 0.76181503481E+00
 0.79714673866E+00 0.90851473730E+00 0.11109617006E+01 0.14264479696E+01 0.18801987866E+01
 0.24964284788E+01 0.32923696552E+01 0.42688202545E+01 0.53972338620E+01 0.66076826752E+01
 0.77857488492E+01 0.87855907601E+01 0.94598990295E+01 0.96983409753E+01 0.94599207322E+01
 0.87856178654E+01 0.77857610124E+01 0.66076703601E+01 0.53972052210E+01 0.42687961731E+01
 0.32923672985E+01 0.24964453814E+01 0.18802162894E+01 0.14264525466E+01 0.11109581651E+01
 0.90851464062E+00 0.72239944530E+00 0.72239653383E+00 0.78165162028E+00 0.90851805345E+00
 0.11181198560E+01 0.14295853180E+01 0.18625054029E+01 0.24325039768E+01 0.31450869463E+01
 0.39872301224E+01 0.49183015124E+01 0.58648364393E+01 0.67247781706E+01 0.73841151510E+01
 0.77430492661E+01 0.77430593613E+01 0.73841304234E+01 0.67247716337E+01 0.58648003617E+01
 0.49182554686E+01 0.39872020438E+01 0.31450909653E+01 0.24325321036E+01 0.18625353761E+01
 0.14295989392E+01 0.11181178135E+01 0.90851464062E+00 0.78165451876E+00 0.72239705984E+00
 0.76181536397E+00 0.84541502140E+00 0.98207606915E+00 0.11833952450E+01 0.14613675876E+01
 0.18250258262E+01 0.22760243806E+01 0.28035518911E+01 0.33798388233E+01 0.39585479953E+01
 0.44785009576E+01 0.48736794828E+01 0.50876066072E+01 0.50876007757E+01 0.48736586782E+01
 0.44784673226E+01 0.39585213827E+01 0.33798402933E+01 0.28035784827E+01 0.22760526170E+01
 0.18250382118E+01 0.14613658543E+01 0.11833899608E+01 0.98207361734E+00 0.84541594066E+00
 0.76181771519E+00 0.72239827093E+00 0.76181536397E+00 0.80944302205E+00 0.89405241499E+00
 0.10230430411E+01 0.12054176169E+01 0.14496621921E+01 0.17605180473E+01 0.21349728615E+01
 0.25583506974E+01 0.30019848135E+01 0.34242304543E+01 0.37759587692E+01 0.40100251823E+01
 0.40922167983E+01 0.40100147298E+01 0.37759440331E+01 0.34242254386E+01 0.30020019785E+01
 0.25583853832E+01 0.21350037823E+01 0.17605279733E+01 0.14496539298E+01 0.12054062568E+01
 0.10230376973E+01 0.89405080110E+00 0.80944050697E+00 0.76181248048E+00 0.74646941459E+00
 0.84541502140E+00 0.89405241499E+00 0.97242657190E+00 0.10868292970E+01 0.12444441345E+01
 0.14511932478E+01 0.17086304747E+01 0.20105539137E+01 0.23404515774E+01 0.26710831271E+01
 0.29672095199E+01 0.31915515196E+01 0.33127139381E+01 0.33127124632E+01 0.31915515596E+01
 0.29672197900E+01 0.26711064113E+01 0.23404792045E+01 0.20105716782E+01 0.17086312542E+01
 0.14511827392E+01 0.12444334065E+01 0.10868235564E+01 0.97242285851E+00 0.89404664750E+00
 0.84540818281E+00 0.82216462738E+00 0.82216777734E+00 0.98207606915E+00 0.10230430411E+01
 0.10868292970E+01 0.11795207480E+01 0.13073516353E+01 0.14744061751E+01 0.16797772725E+01
 0.19150685921E+01 0.21633001313E+01 0.24000666881E+01 0.25971834475E+01 0.27281698632E+01
 0.27741181357E+01 0.27281713831E+01 0.25971906963E+01 0.24000795654E+01 0.21633106543E+01
 0.19150688902E+01 0.16797689022E+01 0.14743978714E+01 0.13073486122E+01 0.11795199414E+01
 0.10868255379E+01 0.10230361931E+01 0.98206994509E+00 0.95930653597E+00 0.95201467269E+00
 0.95930952073E+00 0.11833952450E+01 0.12054176169E+01 0.12444441345E+01 0.13073516353E+01
 0.14000582810E+01 0.15251832464E+01 0.16797779597E+01 0.18539984877E+01 0.20314533007E+01
 0.21914769613E+01 0.23129207268E+01 0.23784954974E+01 0.23784950478E+01 0.23129206226E+01
 0.21914781528E+01 0.20314534118E+01 0.18539947157E+01 0.16797722962E+01 0.15251809433E+01
 0.14000604627E+01 0.13073530085E+01 0.12444401851E+01 0.12054114247E+01 0.11833934998E+01
 0.11723092388E+01 0.11678542152E+01 0.11678516868E+01 0.11723057276E+01 0.14613675876E+01
 0.14496621921E+01 0.14511932478E+01 0.14744061751E+01 0.15251832464E+01 0.16048007759E+01
 0.17086309755E+01 0.18261502913E+01 0.19424657575E+01 0.20410687146E+01 0.21071059631E+01
 0.21303334807E+01 0.21071063308E+01 0.20410707789E+01 0.19424702796E+01 0.18261562691E+01
 0.17086365323E+01 0.16048042747E+01 0.15251834269E+01 0.14744025365E+01 0.14511875710E+01
 0.14496591009E+01 0.14613712672E+01 0.14774573257E+01 0.14904104897E+01 0.14952952062E+01
 0.14904024397E+01 0.14774479932E+01 0.18250258262E+01 0.17605180473E+01 0.17086304747E+01
 0.16797772725E+01 0.16797779597E+01 0.17086309755E+01 0.17605166373E+01 0.18250237559E+01
 0.18893089172E+01 0.19406948471E+01 0.19691463694E+01 0.19691493782E+01 0.19407044615E+01
 0.18893245058E+01 0.18250402305E+01 0.17605265572E+01 0.17086301958E+01 0.16797688389E+01
 0.16797668311E+01 0.17086258173E+01 0.17605219017E+01 0.18250349291E+01 0.18893183391E+01
 0.19406998616E+01 0.19691482837E+01 0.19691472350E+01 0.19406955617E+01 0.18893099683E+01
 0.22760243806E+01 0.21349728615E+01 0.20105539137E+01 0.19150685921E+01 0.18539984877E+01
 0.18261502913E+01 0.18250237559E+01 0.18407980927E+01 0.18625060889E+01 0.18802007523E+01
 0.18869346465E+01 0.18802122835E+01 0.18625271185E+01 0.18408183572E+01 0.18250287141E+01
 0.18261358061E+01 0.18539767324E+01 0.19150562605E+01 0.20105576389E+01 0.21349868217E+01
 0.22760371902E+01 0.24160928724E+01 0.25352758659E+01 0.26153649757E+01 0.26435938623E+01
 0.26153737262E+01 0.25352834602E+01 0.24160901626E+01 0.28035518911E+01 0.25583506974E+01
 0.23404515774E+01 0.21633001313E+01 0.20314533007E+01 0.19424657575E+01 0.18893089172E+01
 0.18625060889E+01 0.18520181804E+01 0.18492758805E+01 0.18492824057E+01 0.18520361566E+01
 0.18625251172E+01 0.18893104047E+01 0.19424431351E+01 0.20314256965E+01 0.21632933110E+01
 0.23404693412E+01 0.25583743831E+01 0.28035633482E+01 0.30536389359E+01 0.32798244498E+01
 0.34520448358E+01 0.35452704266E+01 0.35452768213E+01 0.34520598174E+01 0.32798388412E+01
 0.30536434563E+01 0.33798388233E+01 0.30019848135E+01 0.26710831271E+01 0.24000666881E+01
 0.21914769613E+01 0.20410687146E+01 0.19406948471E+01 0.18802007523E+01 0.18492758805E+01
 0.18399774045E+01 0.18492872864E+01 0.18802164910E+01 0.19406981961E+01 0.20410499521E+01
 0.21914538957E+01 0.24000690185E+01 0.26711136684E+01 0.30020146381E+01 0.33798440737E+01
 0.37787392921E+01 0.41605159387E+01 0.44797467060E+01 0.46926851291E+01 0.47675439548E+01
 0.46926868325E+01 0.44797532737E+01 0.41605300752E+01 0.37787530356E+01 0.39585479953E+01
 0.34242304543E+01 0.29672095199E+01 0.25971834475E+01 0.23129207268E+01 0.21071059631E+01
 0.19691463694E+01 0.18869346465E+01 0.18492824057E+01 0.18492872864E+01 0.18869456557E+01
 0.19691514686E+01 0.21070941988E+01 0.23129035283E+01 0.25971891669E+01 0.29672443762E+01
 0.34242632479E+01 0.39585491688E+01 0.45439339175E+01 0.51346678178E+01 0.56682503658E+01
 0.60756360857E+01 0.62968383733E+01 0.62968347765E+01 0.60756279557E+01 0.56682483385E+01
 0.51346829188E+01 0.45439554593E+01 0.44785009576E+01 0.37759587692E+01 0.31915515196E+01
 0.27281698632E+01 0.23784954974E+01 0.21303334807E+01 0.19691493782E+01 0.18802122835E+01
 0.18520361566E+01 0.18802164910E+01 0.19691514686E+01 0.21303244380E+01 0.23784797186E+01
 0.27281704167E+01 0.31915809220E+01 0.37759934727E+01 0.44785075928E+01 0.52776827461E+01
 0.61253126976E+01 0.69440100667E+01 0.76355629259E+01 0.81007236238E+01 0.82650150811E+01
 0.81007231231E+01 0.76355574433E+01 0.69440090718E+01 0.61253290269E+01 0.52777025397E+01
 0.48736794828E+01 0.40100251823E+01 0.33127139381E+01 0.27741181357E+01 0.23784950478E+01
 0.21071063308E+01 0.19407044615E+01 0.18625271185E+01 0.18625251172E+01 0.19406981961E+01
 0.21070941988E+01 0.23784797186E+01 0.27741146999E+01 0.33127367552E+01 0.40100622284E+01
 0.48736992996E+01 0.58930178317E+01 0.70255494959E+01 0.81866011434E+01 0.92511570071E+01
 0.10073833091E+02 0.10524029006E+02 0.10524034981E+02 0.10073840095E+02 0.92511544500E+01
 0.81866009962E+01 0.70255622588E+01 0.58930255933E+01 0.50876066072E+01 0.40922167983E+01
 0.33127124632E+01 0.27281713831E+01 0.23129206226E+01 0.20410707789E+01 0.18893245058E+01
 0.18408183572E+01 0.18893104047E+01 0.20410499521E+01 0.23129035283E+01 0.27281704167E+01
 0.33127367552E+01 0.40922581466E+01 0.50876380290E+01 0.63045809198E+01 0.77158974059E+01
 0.92420523401E+01 0.10742024769E+02 0.12026880807E+02 0.12899450484E+02 0.13208898773E+02
 0.12899451453E+02 0.12026873400E+02 0.10742013470E+02 0.92420532610E+01 0.77159084201E+01
 0.63045774490E+01 0.50876007757E+01 0.40100147298E+01 0.31915515596E+01 0.25971906963E+01
 0.21914781528E+01 0.19424702796E+01 0.18250402305E+01 0.18250287141E+01 0.19424431351E+01
 0.21914538957E+01 0.25971891669E+01 0.31915809220E+01 0.40100622284E+01 0.50876380290E+01
 0.64494954116E+01 0.80917404525E+01 0.99543285390E+01 0.11898417204E+02 0.13705411964E+02
 0.15101536159E+02 0.15857956933E+02 0.15857947812E+02 0.15101512187E+02 0.13705385911E+02
 0.11898407720E+02 0.99543418366E+01 0.80917578942E+01 0.64494892571E+01 0.48736586782E+01
 0.37759440331E+01 0.29672197900E+01 0.24000795654E+01 0.20314534118E+01 0.18261562691E+01
 0.17605265572E+01 0.18261358061E+01 0.20314256965E+01 0.24000690185E+01 0.29672443762E+01
 0.37759934727E+01 0.48736992996E+01 0.63045809198E+01 0.80917404525E+01 0.10206279095E+02
 0.12532384786E+02 0.14839206177E+02 0.16779877642E+02 0.18058213896E+02 0.18502310784E+02
 0.18058194116E+02 0.16779852717E+02 0.14839194076E+02 0.12532394959E+02 0.10206305925E+02
 0.80917631346E+01 0.63045744561E+01 0.44784673226E+01 0.34242254386E+01 0.26711064113E+01
 0.21633106543E+01 0.18539947157E+01 0.17086365323E+01 0.17086301958E+01 0.18539767324E+01
 0.21632933110E+01 0.26711136684E+01 0.34242632479E+01 0.44785075928E+01 0.58930178317E+01
 0.77158974059E+01 0.99543285390E+01 0.12532384786E+02 0.15238474363E+02 0.17679735802E+02
 0.19489929250E+02 0.20442611219E+02 0.20442609819E+02 0.19489929752E+02 0.17679743107E+02
 0.15238486532E+02 0.12532400808E+02 0.99543500544E+01 0.77159135174E+01 0.58930062701E+01
 0.39585213827E+01 0.30020019785E+01 0.23404792045E+01 0.19150688902E+01 0.16797722962E+01
 0.16048042747E+01 0.16797688389E+01 0.19150562605E+01 0.23404693412E+01 0.30020146381E+01
 0.39585491688E+01 0.52776827461E+01 0.70255494959E+01 0.92420523401E+01 0.11898417204E+02
 0.14839206177E+02 0.17679735802E+02 0.19983231085E+02 0.21453851956E+02 0.21955150517E+02
 0.21453860285E+02 0.19983251407E+02 0.17679757075E+02 0.14839212585E+02 0.11898413741E+02
 0.92420551738E+01 0.70255530265E+01 0.52776674001E+01 0.33798402933E+01 0.25583853832E+01
 0.20105716782E+01 0.16797689022E+01 0.15251809433E+01 0.15251834269E+01 0.16797668311E+01
 0.20105576389E+01 0.25583743831E+01 0.33798440737E+01 0.45439339175E+01 0.61253126976E+01
 0.81866011434E+01 0.10742024769E+02 0.13705411964E+02 0.16779877642E+02 0.19489929250E+02
 0.21453851956E+02 0.22468349957E+02 0.22468343561E+02 0.21453846977E+02 0.19489939042E+02
 0.16779884797E+02 0.13705397978E+02 0.10742002655E+02 0.81865921185E+01 0.61253109572E+01
 0.45439265585E+01 0.28035784827E+01 0.21350037823E+01 0.17086312542E+01 0.14743978714E+01
 0.14000604627E+01 0.14744025365E+01 0.17086258173E+01 0.21349868217E+01 0.28035633482E+01
 0.37787392921E+01 0.51346678178E+01 0.69440100667E+01 0.92511570071E+01 0.12026880807E+02
 0.15101536159E+02 0.18058213896E+02 0.20442611219E+02 0.21955150517E+02 0.22468343561E+02
 0.21955122189E+02 0.20442593869E+02 0.18058220351E+02 0.15101536676E+02 0.12026857221E+02
 0.92511303714E+01 0.69440022023E+01 0.51346728487E+01 0.37787483332E+01 0.22760526170E+01
 0.17605279733E+01 0.14511827392E+01 0.13073486122E+01 0.13073530085E+01 0.14511875710E+01
 0.17605219017E+01 0.22760371902E+01 0.30536389359E+01 0.41605159387E+01 0.56682503658E+01
 0.76355629259E+01 0.10073833091E+02 0.12899450484E+02 0.15857956933E+02 0.18502310784E+02
 0.20442609819E+02 0.21453860285E+02 0.21453846977E+02 0.20442593869E+02 0.18502321274E+02
 0.15857976671E+02 0.12899443258E+02 0.10073801010E+02 0.76355409622E+01 0.56682545127E+01
 0.41605339040E+01 0.30536579585E+01 0.18250382118E+01 0.14496539298E+01 0.12444334065E+01
 0.11795199414E+01 0.12444401851E+01 0.14496591009E+01 0.18250349291E+01 0.24160928724E+01
 0.32798244498E+01 0.44797467060E+01 0.60756360857E+01 0.81007236238E+01 0.10524029006E+02
 0.13208898773E+02 0.15857947812E+02 0.18058194116E+02 0.19489929752E+02 0.19983251407E+02
 0.19489939042E+02 0.18058220351E+02 0.15857976671E+02 0.13208898796E+02 0.10523994737E+02
 0.81006896352E+01 0.60756331519E+01 0.44797693688E+01 0.32798495267E+01 0.24161073512E+01
 0.14613658543E+01 0.12054062568E+01 0.10868235564E+01 0.10868255379E+01 0.12054114247E+01
 0.14613712672E+01 0.18893183391E+01 0.25352758659E+01 0.34520448358E+01 0.46926851291E+01
 0.62968383733E+01 0.82650150811E+01 0.10524034981E+02 0.12899451453E+02 0.15101512187E+02
 0.16779852717E+02 0.17679743107E+02 0.17679757075E+02 0.16779884797E+02 0.15101536676E+02
 0.12899443258E+02 0.10523994737E+02 0.82649752267E+01 0.62968308957E+01 0.46927097804E+01
 0.34520762060E+01 0.25352928322E+01 0.18893196530E+01 0.11833899608E+01 0.10230376973E+01
 0.97242285851E+00 0.10230361931E+01 0.11833934998E+01 0.14774573257E+01 0.19406998616E+01
 0.26153649757E+01 0.35452704266E+01 0.47675439548E+01 0.62968347765E+01 0.81007231231E+01
 0.10073840095E+02 0.12026873400E+02 0.13705385911E+02 0.14839194076E+02 0.15238486532E+02
 0.14839212585E+02 0.13705397978E+02 0.12026857221E+02 0.10073801010E+02 0.81006896352E+01
 0.62968308957E+01 0.47675688204E+01 0.35453024543E+01 0.26153820214E+01 0.19406977804E+01
 0.14774485000E+01 0.98207361734E+00 0.89405080110E+00 0.89404664750E+00 0.98206994509E+00
 0.11723092388E+01 0.14904104897E+01 0.19691482837E+01 0.26435938623E+01 0.35452768213E+01
 0.46926868325E+01 0.60756279557E+01 0.76355574433E+01 0.92511544500E+01 0.10742013470E+02
 0.11898407720E+02 0.12532394959E+02 0.12532400808E+02 0.11898413741E+02 0.10742002655E+02
 0.92511303714E+01 0.76355409622E+01 0.60756331519E+01 0.46927097804E+01 0.35453024543E+01
 0.26436062758E+01 0.19691412276E+01 0.14903938468E+01 0.11723003137E+01 0.84541594066E+00
 0.80944050697E+00 0.84540818282E+00 0.95930653597E+00 0.11678542152E+01 0.14952952062E+01
 0.19691472350E+01 0.26153737262E+01 0.34520598174E+01 0.44797532737E+01 0.56682483385E+01
 0.69440090718E+01 0.81866009962E+01 0.92420532610E+01 0.99543418366E+01 0.10206305925E+02
 0.99543500544E+01 0.92420551738E+01 0.81865921185E+01 0.69440022023E+01 0.56682545127E+01
 0.44797693688E+01 0.34520762060E+01 0.26153820214E+01 0.19691412276E+01 0.14952767138E+01
 0.11678378919E+01 0.95930558696E+00 0.76181771519E+00 0.76181248048E+00 0.82216462738E+00
 0.95201467269E+00 0.11678516868E+01 0.14904024397E+01 0.19406955617E+01 0.25352834602E+01
 0.32798388412E+01 0.41605300752E+01 0.51346829188E+01 0.61253290269E+01 0.70255622588E+01
 0.77159084201E+01 0.80917578942E+01 0.80917631346E+01 0.77159135174E+01 0.70255530265E+01
 0.61253109572E+01 0.51346728487E+01 0.41605339040E+01 0.32798495267E+01 0.25352928322E+01
 0.19406977804E+01 0.14903938468E+01 0.11678378919E+01 0.95200916121E+00 0.82217093867E+00
 0.72239827093E+00 0.74646941459E+00 0.82216777734E+00 0.95930952073E+00 0.11723057276E+01
 0.14774479932E+01 0.18893099683E+01 0.24160901626E+01 0.30536434563E+01 0.37787530356E+01
 0.45439554593E+01 0.52777025397E+01 0.58930255933E+01 0.63045774490E+01 0.64494892571E+01
 0.63045744561E+01 0.58930062701E+01 0.52776674001E+01 0.45439265585E+01 0.37787483332E+01
 0.30536579585E+01 0.24161073512E+01 0.18893196530E+01 0.14774485000E+01 0.11723003137E+01
 0.95930558696E+00 0.82217093867E+00 0.74647545986E+00 0.79714981957E+00 0.84541338710E+00
 0.93162130602E+00 0.10638165174E+01 0.12516541770E+01 0.15041227254E+01 0.18261507273E+01
 0.22144534883E+01 0.26535478866E+01 0.31134572943E+01 0.35508831248E+01 0.39149728110E+01
 0.41571063919E+01 0.42420987335E+01 0.41570951679E+01 0.39149561350E+01 0.35508730778E+01
 0.31134634986E+01 0.26535652127E+01 0.22144656823E+01 0.18261489462E+01 0.15041145467E+01
 0.12516517302E+01 0.10638216767E+01 0.93162688206E+00 0.84541438901E+00 0.79714826842E+00
 0.78165183308E+00 0.84541338710E+00 0.89405147821E+00 0.97242663673E+00 0.10868295110E+01
 0.12444438832E+01 0.14511932202E+01 0.17086314487E+01 0.20105555108E+01 0.23404530645E+01
 0.26710843150E+01 0.29672099496E+01 0.31915499520E+01 0.33127097741E+01 0.33127067697E+01
 0.31915458222E+01 0.29672146613E+01 0.26711024688E+01 0.23404776699E+01 0.20105732500E+01
 0.17086351595E+01 0.14511878306E+01 0.12444391810E+01 0.10868292870E+01 0.97242698528E+00
 0.89404817795E+00 0.84540779038E+00 0.82216347675E+00 0.82216625305E+00 0.93162130602E+00
 0.97242663673E+00 0.10351106283E+01 0.11251568351E+01 0.12483149543E+01 0.14084434353E+01