   2   2   0   0
  0.2285070E+02  0.4013114E-09  0.4013114E-09  0.4013114E-09  0.5000000E-15
  1.000000000000000E-004
  CAR 
 unknown system                          
     29.68135288    -10.81527733  301      3.77382021      1.00000000
    -10.815  0.0000E+00  0.0000E+00
    -10.680  0.0000E+00  0.0000E+00
    -10.545  0.0000E+00  0.0000E+00
    -10.410  0.0000E+00  0.0000E+00
    -10.275  0.0000E+00  0.0000E+00
    -10.140  0.0000E+00  0.0000E+00
    -10.005  0.0000E+00  0.0000E+00
     -9.870  0.0000E+00  0.0000E+00
     -9.735  0.0000E+00  0.0000E+00
     -9.600  0.0000E+00  0.0000E+00
     -9.465  0.4477E-12  0.6044E-13
     -9.330  0.5592E-07  0.7549E-08
     -9.195  0.2065E-03  0.2789E-04
     -9.060  0.2577E-01  0.3507E-02
     -8.925  0.1491E+00  0.2363E-01
     -8.790  0.5537E-01  0.3111E-01
     -8.655  0.1068E-02  0.3125E-01
     -8.520  0.7103E-04  0.3126E-01
     -8.385  0.3749E-01  0.3632E-01
     -8.250  0.7862E+00  0.1424E+00
     -8.116  0.9894E+00  0.2760E+00
     -7.981  0.6873E+00  0.3688E+00
     -7.846  0.6934E+00  0.4624E+00
     -7.711  0.4696E-01  0.4687E+00
     -7.576  0.1302E-03  0.4687E+00
     -7.441  0.4122E-05  0.4688E+00
     -7.306  0.7913E-02  0.4698E+00
     -7.171  0.5370E+00  0.5423E+00
     -7.036  0.1865E+01  0.7941E+00
     -6.901  0.8879E+00  0.9139E+00
     -6.766  0.3891E+00  0.9664E+00
     -6.631  0.2053E+00  0.9942E+00
     -6.496  0.2772E+01  0.1368E+01
     -6.361  0.2466E+01  0.1701E+01
     -6.226  0.1287E+00  0.1719E+01
     -6.091  0.2666E-03  0.1719E+01
     -5.956  0.1740E-07  0.1719E+01
     -5.821  0.3269E-13  0.1719E+01
     -5.686  0.1234E-14  0.1719E+01
     -5.551  0.1048E-08  0.1719E+01
     -5.416  0.2478E-04  0.1719E+01
     -5.281  0.1855E-01  0.1721E+01
     -5.146  0.6351E+00  0.1807E+01
     -5.011  0.2308E+01  0.2119E+01
     -4.876  0.1161E+01  0.2275E+01
     -4.741  0.4442E-01  0.2281E+01
     -4.606  0.6939E-04  0.2281E+01
     -4.471  0.3398E-08  0.2281E+01
     -4.336  0.4464E-12  0.2281E+01
     -4.201  0.7932E-07  0.2281E+01
     -4.066  0.4182E-03  0.2281E+01
     -3.931  0.7304E-01  0.2291E+01
     -3.796  0.6136E+00  0.2374E+01
     -3.661  0.1987E+01  0.2642E+01
     -3.526  0.3383E+01  0.3099E+01
     -3.391  0.4218E+00  0.3156E+01
     -3.256  0.2333E-02  0.3156E+01
     -3.121  0.1855E-05  0.3156E+01
     -2.986  0.4041E-02  0.3157E+01
     -2.851  0.3926E+00  0.3210E+01
     -2.716  0.1825E+01  0.3456E+01
     -2.581  0.5478E+00  0.3530E+01
     -2.446  0.8272E-02  0.3531E+01
     -2.311  0.4411E-05  0.3531E+01
     -2.176  0.7077E-10  0.3531E+01
     -2.041  0.0000E+00  0.3531E+01
     -1.906  0.0000E+00  0.3531E+01
     -1.771  0.0000E+00  0.3531E+01
     -1.636  0.0000E+00  0.3531E+01
     -1.501  0.1259E-12  0.3531E+01
     -1.366  0.4242E-07  0.3531E+01
     -1.231  0.4143E-03  0.3531E+01
     -1.096  0.1301E+00  0.3549E+01
     -0.961  0.1697E+01  0.3778E+01
     -0.826  0.1351E+01  0.3960E+01
     -0.691  0.6221E-01  0.3969E+01
     -0.556  0.1123E-03  0.3969E+01
     -0.421  0.1733E-03  0.3969E+01
     -0.286  0.8872E-01  0.3981E+01
     -0.151  0.2066E+01  0.4260E+01
     -0.016  0.4532E+01  0.4871E+01
      0.119  0.3867E+01  0.5393E+01
      0.254  0.5543E+00  0.5468E+01
      0.389  0.3983E-02  0.5469E+01
      0.524  0.2004E-01  0.5471E+01
      0.659  0.5235E+00  0.5542E+01
      0.794  0.7743E+00  0.5647E+01
      0.929  0.7086E-01  0.5656E+01
      1.064  0.4552E-03  0.5656E+01
      1.199  0.1025E+00  0.5670E+01
      1.334  0.2285E+01  0.5979E+01
      1.469  0.2938E+01  0.6375E+01
      1.604  0.4213E+00  0.6432E+01
      1.739  0.1656E+01  0.6656E+01
      1.874  0.9038E+00  0.6778E+01
      2.009  0.2863E-01  0.6781E+01
      2.144  0.2454E+00  0.6815E+01
      2.279  0.2077E+01  0.7095E+01
      2.414  0.2009E+01  0.7366E+01
      2.549  0.2943E+00  0.7406E+01
      2.684  0.2621E-01  0.7409E+01
      2.819  0.1008E+01  0.7545E+01
      2.954  0.2328E+01  0.7860E+01
      3.089  0.3428E+00  0.7906E+01
      3.224  0.2288E-02  0.7906E+01
      3.359  0.5703E-06  0.7906E+01
      3.494  0.3174E-03  0.7906E+01
      3.629  0.6034E-01  0.7914E+01
      3.764  0.5731E+00  0.7992E+01
      3.898  0.7923E+00  0.8099E+01
      4.033  0.4068E+00  0.8154E+01
      4.168  0.2246E-01  0.8157E+01
      4.303  0.2989E+00  0.8197E+01
      4.438  0.1652E+01  0.8420E+01
      4.573  0.1194E+01  0.8581E+01
      4.708  0.5939E+00  0.8661E+01
      4.843  0.8044E+00  0.8770E+01
      4.978  0.1784E+00  0.8794E+01
      5.113  0.2228E+01  0.9095E+01
      5.248  0.2987E+01  0.9498E+01
      5.383  0.2457E+00  0.9531E+01
      5.518  0.5450E-01  0.9539E+01
      5.653  0.1160E+01  0.9695E+01
      5.788  0.1453E+01  0.9891E+01
      5.923  0.1108E+00  0.9906E+01
      6.058  0.2761E-02  0.9907E+01
      6.193  0.1469E+00  0.9926E+01
      6.328  0.5215E+00  0.9997E+01
      6.463  0.8556E+00  0.1011E+02
      6.598  0.5358E+00  0.1018E+02
      6.733  0.2128E-01  0.1019E+02
      6.868  0.3263E-04  0.1019E+02
      7.003  0.1174E-04  0.1019E+02
      7.138  0.1700E-01  0.1019E+02
      7.273  0.9059E+00  0.1031E+02
      7.408  0.3046E+01  0.1072E+02
      7.543  0.1477E+01  0.1092E+02
      7.678  0.1133E+00  0.1094E+02
      7.813  0.5065E+00  0.1101E+02
      7.948  0.4050E+01  0.1155E+02
      8.083  0.3365E+01  0.1201E+02
      8.218  0.4144E+00  0.1206E+02
      8.353  0.6669E+00  0.1215E+02
      8.488  0.3388E+01  0.1261E+02
      8.623  0.1464E+01  0.1281E+02
      8.758  0.6474E+00  0.1290E+02
      8.893  0.2025E+01  0.1317E+02
      9.028  0.2443E+01  0.1350E+02
      9.163  0.4224E+01  0.1407E+02
      9.298  0.2427E+01  0.1440E+02
      9.433  0.1529E+01  0.1460E+02
      9.568  0.1940E+01  0.1486E+02
      9.703  0.5797E+00  0.1494E+02
      9.838  0.1724E+01  0.1518E+02
      9.973  0.3374E+01  0.1563E+02
     10.108  0.4933E+00  0.1570E+02
     10.243  0.1408E+00  0.1572E+02
     10.378  0.1619E-01  0.1572E+02
     10.513  0.7681E-03  0.1572E+02
     10.648  0.1194E+00  0.1573E+02
     10.783  0.1097E+01  0.1588E+02
     10.918  0.9952E+00  0.1602E+02
     11.053  0.1049E+00  0.1603E+02
     11.188  0.3104E+00  0.1607E+02
     11.323  0.1789E+01  0.1631E+02
     11.458  0.6640E+00  0.1640E+02
     11.593  0.9405E-01  0.1642E+02
     11.728  0.1014E+01  0.1655E+02
     11.863  0.1694E+01  0.1678E+02
     11.998  0.2389E+01  0.1711E+02
     12.133  0.3744E+00  0.1716E+02
     12.268  0.2724E-02  0.1716E+02
     12.403  0.6654E-06  0.1716E+02
     12.538  0.7906E-09  0.1716E+02
     12.673  0.1453E-04  0.1716E+02
     12.808  0.8449E-02  0.1716E+02
     12.943  0.2304E+00  0.1719E+02
     13.078  0.1539E+01  0.1740E+02
     13.213  0.2505E+01  0.1773E+02
     13.348  0.3446E+00  0.1778E+02
     13.483  0.1199E+00  0.1780E+02
     13.618  0.2394E+01  0.1812E+02
     13.753  0.3011E+01  0.1853E+02
     13.888  0.1233E+01  0.1869E+02
     14.023  0.1184E+01  0.1885E+02
     14.158  0.5473E+00  0.1893E+02
     14.293  0.6517E+00  0.1901E+02
     14.428  0.6425E+00  0.1910E+02
     14.563  0.2261E+01  0.1941E+02
     14.698  0.2852E+01  0.1979E+02
     14.833  0.3157E+01  0.2022E+02
     14.968  0.4197E+01  0.2078E+02
     15.103  0.6938E+00  0.2088E+02
     15.238  0.6622E+00  0.2097E+02
     15.373  0.2830E+01  0.2135E+02
     15.508  0.4175E+01  0.2191E+02
     15.643  0.1916E+01  0.2217E+02
     15.778  0.1172E+01  0.2233E+02
     15.912  0.3863E+01  0.2285E+02
     16.047  0.2454E+01  0.2318E+02
     16.182  0.1744E+01  0.2342E+02
     16.317  0.2323E+01  0.2373E+02
     16.452  0.2037E+01  0.2401E+02
     16.587  0.3332E+01  0.2446E+02
     16.722  0.2039E+01  0.2473E+02
     16.857  0.3404E+01  0.2519E+02
     16.992  0.6380E+00  0.2528E+02
     17.127  0.1421E+01  0.2547E+02
     17.262  0.2587E+01  0.2582E+02
     17.397  0.1305E+01  0.2599E+02
     17.532  0.1843E+00  0.2602E+02
     17.667  0.8801E-01  0.2603E+02
     17.802  0.3410E-02  0.2603E+02
     17.937  0.5087E-05  0.2603E+02
     18.072  0.3129E-06  0.2603E+02
     18.207  0.1657E-02  0.2603E+02
     18.342  0.2905E+00  0.2607E+02
     18.477  0.2264E+01  0.2638E+02
     18.612  0.1118E+01  0.2653E+02
     18.747  0.2989E-01  0.2653E+02
     18.882  0.2964E-04  0.2653E+02
     19.017  0.9009E-09  0.2653E+02
     19.152  0.8225E-15  0.2653E+02
     19.287  0.7711E-15  0.2653E+02
     19.422  0.8027E-09  0.2653E+02
     19.557  0.2631E-04  0.2653E+02
     19.692  0.2820E-01  0.2654E+02
     19.827  0.1264E+01  0.2671E+02
     19.962  0.3513E+01  0.2718E+02
     20.097  0.9482E+00  0.2731E+02
     20.232  0.2855E+01  0.2769E+02
     20.367  0.2387E+01  0.2802E+02
     20.502  0.1196E+00  0.2803E+02
     20.637  0.3394E+00  0.2808E+02
     20.772  0.1811E+01  0.2832E+02
     20.907  0.1049E+01  0.2846E+02
     21.042  0.1850E+01  0.2871E+02
     21.177  0.1401E+01  0.2890E+02
     21.312  0.6257E+01  0.2975E+02
     21.447  0.4339E+01  0.3033E+02
     21.582  0.5362E+00  0.3041E+02
     21.717  0.7657E-02  0.3041E+02
     21.852  0.2413E-02  0.3041E+02
     21.987  0.3290E+00  0.3045E+02
     22.122  0.3113E+01  0.3087E+02
     22.257  0.4543E+01  0.3148E+02
     22.392  0.1214E+01  0.3165E+02
     22.527  0.5470E+00  0.3172E+02
     22.662  0.8133E+00  0.3183E+02
     22.797  0.8755E-01  0.3184E+02
     22.932  0.4092E-03  0.3184E+02
     23.067  0.9967E-07  0.3184E+02
     23.202  0.2519E-03  0.3184E+02
     23.337  0.5595E-01  0.3185E+02
     23.472  0.5370E+00  0.3192E+02
     23.607  0.3220E+00  0.3197E+02
     23.742  0.1076E-01  0.3197E+02
     23.877  0.1361E-04  0.3197E+02
     24.012  0.5322E-09  0.3197E+02
     24.147  0.6168E-15  0.3197E+02
     24.282  0.0000E+00  0.3197E+02
     24.417  0.0000E+00  0.3197E+02
     24.552  0.0000E+00  0.3197E+02
     24.687  0.0000E+00  0.3197E+02
     24.822  0.0000E+00  0.3197E+02
     24.957  0.0000E+00  0.3197E+02
     25.092  0.0000E+00  0.3197E+02
     25.227  0.0000E+00  0.3197E+02
     25.362  0.0000E+00  0.3197E+02
     25.497  0.0000E+00  0.3197E+02
     25.632  0.0000E+00  0.3197E+02
     25.767  0.0000E+00  0.3197E+02
     25.902  0.0000E+00  0.3197E+02
     26.037  0.0000E+00  0.3197E+02
     26.172  0.0000E+00  0.3197E+02
     26.307  0.0000E+00  0.3197E+02
     26.442  0.0000E+00  0.3197E+02
     26.577  0.0000E+00  0.3197E+02
     26.712  0.0000E+00  0.3197E+02
     26.847  0.0000E+00  0.3197E+02
     26.982  0.0000E+00  0.3197E+02
     27.117  0.0000E+00  0.3197E+02
     27.252  0.1285E-16  0.3197E+02
     27.387  0.1564E-10  0.3197E+02
     27.522  0.7424E-06  0.3197E+02
     27.657  0.1068E-02  0.3197E+02
     27.792  0.5537E-01  0.3198E+02
     27.926  0.1491E+00  0.3200E+02
     28.061  0.2577E-01  0.3200E+02
     28.196  0.2065E-03  0.3200E+02
     28.331  0.5592E-07  0.3200E+02
     28.466  0.4477E-12  0.3200E+02
     28.601  0.0000E+00  0.3200E+02
     28.736  0.0000E+00  0.3200E+02
     28.871  0.0000E+00  0.3200E+02
     29.006  0.0000E+00  0.3200E+02
     29.141  0.0000E+00  0.3200E+02
     29.276  0.0000E+00  0.3200E+02
     29.411  0.0000E+00  0.3200E+02
     29.546  0.0000E+00  0.3200E+02
     29.681  0.0000E+00  0.3200E+02
