    2    2    1    1
  0.2285070E+02  0.4013114E-09  0.4013114E-09  0.4013114E-09  0.5000000E-15
  1.000000000000000E-004
  CAR 
 unknown system                          
      8      8     16
 
  0.0000000E+00  0.0000000E+00  0.0000000E+00  0.1562500E-01
      1         -8.974521   1.000000
      2          3.718651   0.782365
      3          3.742489   0.671150
      4          3.742542   0.670880
      5          3.742542   0.670880
      6          6.249171   0.000000
      7          6.249216   0.000000
      8          6.249216   0.000000
      9         10.138766   0.000000
     10         12.955771   0.000000
     11         12.955771   0.000000
     12         14.412607   0.000000
     13         14.412615   0.000000
     14         14.412615   0.000000
     15         17.513439   0.000000
     16         27.840597   0.000000
 
  0.2500000E+00  0.4318293E-17 -0.1104187E-17  0.1250000E+00
      1         -8.240669   1.000000
      2         -0.971548   1.000000
      3          2.860110   1.000000
      4          2.860150   1.000000
      5          4.374764   0.000000
      6          7.322464   0.000000
      7          7.322501   0.000000
      8          9.323294   0.000000
      9         11.713477   0.000000
     10         11.907926   0.000000
     11         11.907933   0.000000
     12         14.547499   0.000000
     13         18.442187   0.000000
     14         18.442191   0.000000
     15         21.320516   0.000000
     16         21.394511   0.000000
 
  0.5000000E+00  0.8636585E-17 -0.2208374E-17  0.6250000E-01
      1         -6.912339   1.000000
      2         -3.831150   1.000000
      3          2.340349   1.000000
      4          2.340381   1.000000
      5          3.889327   0.051181
      6          7.431980   0.000000
      7          7.432007   0.000000
      8         10.827296   0.000000
      9         14.224148   0.000000
     10         14.724054   0.000000
     11         14.795241   0.000000
     12         14.795275   0.000000
     13         15.786707   0.000000
     14         15.786714   0.000000
     15         22.290176   0.000000
     16         23.446410   0.000000
 
  0.2500000E+00  0.2500000E+00  0.1928463E-16  0.9375000E-01
      1         -7.974665   1.000000
      2         -0.973752   1.000000
      3          1.708548   1.000000
      4          1.708579   1.000000
      5          4.733533   0.000000
      6          6.445462   0.000000
      7          9.507020   0.000000
      8          9.507044   0.000000
      9         10.746010   0.000000
     10         13.834892   0.000000
     11         13.981915   0.000000
     12         16.482514   0.000000
     13         16.482519   0.000000
     14         17.165570   0.000000
     15         20.978376   0.000000
     16         20.978379   0.000000
 
  0.5000000E+00  0.2500000E+00  0.1338910E-16  0.3750000E+00
      1         -6.501469   1.000000
      2         -3.627015   1.000000
      3          0.028245   1.000000
      4          1.346226   1.000000
      5          5.128022   0.000000
      6          7.907982   0.000000
      7          9.130915   0.000000
      8          9.871587   0.000000
      9         13.626272   0.000000
     10         14.883973   0.000000
     11         15.393029   0.000000
     12         15.901119   0.000000
     13         16.757753   0.000000
     14         20.223379   0.000000
     15         21.276862   0.000000
     16         22.171463   0.000000
 
 -0.2500000E+00  0.2500000E+00 -0.7493568E-17  0.1875000E+00
      1         -7.110084   1.000000
      2         -2.775422   1.000000
      3         -0.110149   1.000000
      4          2.239736   1.000000
      5          5.664549   0.000000
      6          8.467814   0.000000
      7          8.812547   0.000000
      8          8.994037   0.000000
      9         11.273734   0.000000
     10         13.099580   0.000000
     11         15.530458   0.000000
     12         16.202092   0.000000
     13         17.251963   0.000000
     14         19.860594   0.000000
     15         21.249572   0.000000
     16         22.073645   0.000000
 
  0.5000000E+00  0.5000000E+00  0.3856927E-16  0.4687500E-01
      1         -5.123386   1.000000
      2         -5.123385   1.000000
      3          0.678264   1.000000
      4          0.678282   1.000000
      5          4.471718   0.000000
      6          4.471719   0.000000
      7         13.136376   0.000000
      8         13.136396   0.000000
      9         15.248896   0.000000
     10         15.248901   0.000000
     11         16.191994   0.000000
     12         16.191998   0.000000
     13         17.069523   0.000000
     14         17.069526   0.000000
     15         22.553927   0.000000
     16         22.553932   0.000000
 
 -0.2500000E+00  0.5000000E+00  0.2500000E+00  0.9375000E-01
      1         -5.027584   1.000000
      2         -5.027583   1.000000
      3         -0.148272   1.000000
      4         -0.148257   1.000000
      5          8.004951   0.000000
      6          8.004961   0.000000
      7          8.415407   0.000000
      8          8.415410   0.000000
      9         14.587674   0.000000
     10         14.587688   0.000000
     11         16.480022   0.000000
     12         16.480022   0.000000
     13         19.901396   0.000000
     14         19.901404   0.000000
     15         20.719069   0.000000
     16         20.719078   0.000000
