       N       E                     dE             d eps       ncg     rms          rms(c)
DAV:   1    -0.242857191124E+01   -0.24286E+01   -0.17959E+03   304   0.162E+02
DAV:   2    -0.876536426583E+01   -0.63368E+01   -0.63258E+01   336   0.274E+01
DAV:   3    -0.878856898107E+01   -0.23205E-01   -0.23061E-01   352   0.205E+00
DAV:   4    -0.878857893016E+01   -0.99491E-05   -0.99489E-05   416   0.417E-02
DAV:   5    -0.878857893022E+01   -0.58236E-10   -0.38305E-10   336   0.503E-05    0.326E+00
DAV:   6    -0.871380605247E+01    0.74773E-01   -0.39783E-02   320   0.553E-01    0.200E+00
DAV:   7    -0.868216484322E+01    0.31641E-01   -0.80314E-02   352   0.844E-01    0.134E-01
DAV:   8    -0.868377439487E+01   -0.16096E-02   -0.22916E-03   304   0.151E-01    0.319E-02
DAV:   9    -0.868402048618E+01   -0.24609E-03   -0.26592E-04   384   0.578E-02    0.223E-02
DAV:  10    -0.868402867466E+01   -0.81885E-05   -0.26995E-05   384   0.194E-02
   1 F= -.86840287E+01 E0= -.86820403E+01  d E =-.397683E-02
