 vasp.6.4.0 14Feb23 (build Mar 14 2023 01:08:06) complex                        
  
 executed on             LinuxIFC date 2024.04.19  17:23:19
 running   16 mpi-ranks, on    1 nodes
 distrk:  each k-point on   16 cores,    1 groups
 distr:  one band on NCORE=   1 cores,   16 groups


--------------------------------------------------------------------------------------------------------


 INCAR:
   ISMEAR = 0
   SIGMA = 0.1

 POTCAR:    PAW_PBE Ge 05Jan2001                  
 -----------------------------------------------------------------------------
|                                                                             |
|           W    W    AA    RRRRR   N    N  II  N    N   GGGG   !!!           |
|           W    W   A  A   R    R  NN   N  II  NN   N  G    G  !!!           |
|           W    W  A    A  R    R  N N  N  II  N N  N  G       !!!           |
|           W WW W  AAAAAA  RRRRR   N  N N  II  N  N N  G  GGG   !            |
|           WW  WW  A    A  R   R   N   NN  II  N   NN  G    G                |
|           W    W  A    A  R    R  N    N  II  N    N   GGGG   !!!           |
|                                                                             |
|     For optimal performance we recommend to set                             |
|       NCORE = 2 up to number-of-cores-per-socket                            |
|     NCORE specifies how many cores store one orbital (NPAR=cpu/NCORE).      |
|     This setting can greatly improve the performance of VASP for DFT.       |
|     The default, NCORE=1 might be grossly inefficient on modern             |
|     multi-core architectures or massively parallel machines. Do your        |
|     own testing! More info at https://www.vasp.at/wiki/index.php/NCORE      |
|     Unfortunately you need to use the default for GW and RPA                |
|     calculations (for HF NCORE is supported but not extensively tested      |
|     yet).                                                                   |
|                                                                             |
 -----------------------------------------------------------------------------

 POTCAR:    PAW_PBE Ge 05Jan2001                  
   SHA256 =  7ff11deedcda39f1950abeda971a84a1f98a719a97bc9679a0df455c008734f8 Ge/POTCAR             
   COPYR  = (c) Copyright 05Jan2001 Georg Kresse                                                    
   COPYR  = This file is part of the software VASP. Any use, copying, and all other rights are regul
   COPYR  = If you do not have a valid VASP license, you may not use, copy or distribute this file. 
   VRHFIN =Ge: s2p2                                                                                 
   LEXCH  = PE                                                                                      
   EATOM  =   104.9960 eV,    7.7170 Ry                                                             
                                                                                                    
   TITEL  = PAW_PBE Ge 05Jan2001                                                                    
   LULTRA =        F    use ultrasoft PP ?                                                          
   IUNSCR =        1    unscreen: 0-lin 1-nonlin 2-no                                               
   RPACOR =    2.170    partial core radius                                                         
   POMASS =   72.610; ZVAL   =    4.000    mass and valenz                                          
   RCORE  =    2.300    outmost cutoff radius                                                       
   RWIGS  =    2.300; RWIGS  =    1.217    wigner-seitz radius (au A)                               
   ENMAX  =  173.807; ENMIN  =  130.355 eV                                                          
   ICORE  =        3    local potential                                                             
   LCOR   =        T    correct aug charges                                                         
   LPAW   =        T    paw PP                                                                      
   EAUG   =  385.843                                                                                
   DEXC   =    0.000                                                                                
   RMAX   =    2.342    core radius for proj-oper                                                   
   RAUG   =    1.300    factor for augmentation sphere                                              
   RDEP   =    2.318    radius for radial grids                                                     
   RDEPT  =    2.103    core radius for aug-charge                                                  
                                                                                                    
   Atomic configuration                                                                             
   10 entries                                                                                       
     n  l   j            E        occ.                                                              
     1  0  0.50    -10959.8463   2.0000                                                             
     2  0  0.50     -1371.6056   2.0000                                                             
     2  1  1.50     -1198.4791   6.0000                                                             
     3  0  0.50      -168.4733   2.0000                                                             
     3  1  1.50      -115.6019   6.0000                                                             
     3  2  2.50       -29.3106  10.0000                                                             
     4  0  0.50       -11.7309   2.0000                                                             
     4  1  0.50        -3.8952   2.0000                                                             
     4  2  1.50        -4.0817   0.0000                                                             
     4  3  2.50        -4.0817   0.0000                                                             
   Description                                                                                      
     l       E           TYP  RCUT    TYP  RCUT                                                     
     0    -11.7309493     23  2.300                                                                 
     0     -7.4578696     23  2.300                                                                 
     1     -3.8952261     23  2.300                                                                 
     1      6.1178114     23  2.300                                                                 
     2     -4.0817478     23  2.300                                                                 
     3     -1.3605826      7  2.300                                                                 
  local pseudopotential read in
  partial core-charges read in
  partial kinetic energy density read in
  atomic valenz-charges read in
  non local Contribution for L=           0  read in
    real space projection operators read in
  non local Contribution for L=           0  read in
    real space projection operators read in
  non local Contribution for L=           1  read in
    real space projection operators read in
  non local Contribution for L=           1  read in
    real space projection operators read in
  non local Contribution for L=           2  read in
    real space projection operators read in
    PAW grid and wavefunctions read in
 
   number of l-projection  operators is LMAX  =           5
   number of lm-projection operators is LMMAX =          13
 
  PAW_PBE Ge 05Jan2001                  :
 energy of atom  1       EATOM= -104.9960
 kinetic energy error for atom=    0.0055 (will be added to EATOM!!)
 
 
 POSCAR: diamond_Ge_2
  positions in direct lattice
  No initial velocities read in
 exchange correlation table for  LEXCH =        8
   RHO(1)=    0.500       N(1)  =     2000
   RHO(2)=  100.500       N(2)  =     4000
 


--------------------------------------------------------------------------------------------------------


 ion  position               nearest neighbor table
   1  0.750  0.750  0.750-   2 2.46   2 2.46   2 2.46   2 2.46
   2  0.500  0.500  0.500-   1 2.46   1 2.46   1 2.46   1 2.46
 
  LATTYP: Found a face centered cubic cell.
 ALAT       =     5.6754000000
  
  Lattice vectors:
  
 A1 = (   0.0000000000,   2.8377000000,   2.8377000000)
 A2 = (   2.8377000000,   0.0000000000,   2.8377000000)
 A3 = (   2.8377000000,   2.8377000000,   0.0000000000)


Analysis of symmetry for initial positions (statically):
=====================================================================
 Subroutine PRICEL returns:
 Original cell was already a primitive cell.
 

 Routine SETGRP: Setting up the symmetry group for a 
 face centered cubic supercell.


 Subroutine GETGRP returns: Found 48 space group operations
 (whereof 24 operations were pure point group operations)
 out of a pool of 48 trial point group operations.


The static configuration has the point symmetry T_d .
 The point group associated with its full space group is O_h .


Analysis of symmetry for dynamics (positions and initial velocities):
=====================================================================
 Subroutine PRICEL returns:
 Original cell was already a primitive cell.
 

 Routine SETGRP: Setting up the symmetry group for a 
 face centered cubic supercell.


 Subroutine GETGRP returns: Found 48 space group operations
 (whereof 24 operations were pure point group operations)
 out of a pool of 48 trial point group operations.


The dynamic configuration has the point symmetry T_d .
 The point group associated with its full space group is O_h .


 Subroutine INISYM returns: Found 48 space group operations
 (whereof 24 operations are pure point group operations),
 and found     1 'primitive' translations


----------------------------------------------------------------------------------------

                                     Primitive cell                                     

  volume of cell :      45.7014

  direct lattice vectors                    reciprocal lattice vectors
     0.000000000  2.837700000  2.837700000    -0.176199034  0.176199034  0.176199034
     2.837700000  0.000000000  2.837700000     0.176199034 -0.176199034  0.176199034
     2.837700000  2.837700000  0.000000000     0.176199034  0.176199034 -0.176199034

  length of vectors
     4.013113826  4.013113826  4.013113826     0.305185680  0.305185680  0.305185680

  position of ions in fractional coordinates (direct lattice)
     0.750000000  0.750000000  0.750000000
     0.500000000  0.500000000  0.500000000

  ion indices of the primitive-cell ions
   primitive index   ion index
                 1           1
                 2           2

----------------------------------------------------------------------------------------

 
 
 KPOINTS: K-Points                                

Automatic generation of k-mesh.
 Grid dimensions read from file:
 generate k-points for:    4    4    4

 Generating k-lattice:

  Cartesian coordinates                     Fractional coordinates (reciprocal lattice)
    -0.044049759  0.044049759  0.044049759     0.250000000 -0.000000000  0.000000000
     0.044049759 -0.044049759  0.044049759    -0.000000000  0.250000000 -0.000000000
     0.044049759  0.044049759 -0.044049759     0.000000000  0.000000000  0.250000000

  Length of vectors
     0.076296420  0.076296420  0.076296420

  Shift w.r.t. Gamma in fractional coordinates (k-lattice)
     0.000000000  0.000000000  0.000000000

 
 Subroutine IBZKPT returns following result:
 ===========================================
 
 Found      8 irreducible k-points:
 
 Following reciprocal coordinates:
            Coordinates               Weight
  0.000000  0.000000  0.000000      1.000000
  0.250000  0.000000 -0.000000      8.000000
  0.500000  0.000000 -0.000000      4.000000
  0.250000  0.250000  0.000000      6.000000
  0.500000  0.250000  0.000000     24.000000
 -0.250000  0.250000 -0.000000     12.000000
  0.500000  0.500000  0.000000      3.000000
 -0.250000  0.500000  0.250000      6.000000
 
 Following cartesian coordinates:
            Coordinates               Weight
  0.000000  0.000000  0.000000      1.000000
 -0.044050  0.044050  0.044050      8.000000
 -0.088100  0.088100  0.088100      4.000000
  0.000000  0.000000  0.088100      6.000000
 -0.044050  0.044050  0.132149     24.000000
  0.088100 -0.088100 -0.000000     12.000000
  0.000000  0.000000  0.176199      3.000000
  0.176199 -0.088100  0.000000      6.000000
 


--------------------------------------------------------------------------------------------------------




 Dimension of arrays:
   k-points           NKPTS =      8   k-points in BZ     NKDIM =      8   number of bands    NBANDS=     16
   number of dos      NEDOS =    301   number of ions     NIONS =      2
   non local maximal  LDIM  =      5   non local SUM 2l+1 LMDIM =     13
   total plane-waves  NPLWV =   2744
   max r-space proj   IRMAX =      1   max aug-charges    IRDMAX=   3462
   dimension x,y,z NGX =    14 NGY =   14 NGZ =   14
   dimension x,y,z NGXF=    28 NGYF=   28 NGZF=   28
   support grid    NGXF=    28 NGYF=   28 NGZF=   28
   ions per type =               2
   NGX,Y,Z   is equivalent  to a cutoff of   5.80,  5.80,  5.80 a.u.
   NGXF,Y,Z  is equivalent  to a cutoff of  11.60, 11.60, 11.60 a.u.

 SYSTEM =  unknown system                          
 POSCAR =  diamond_Ge_2                            

 Startparameter for this run:
   NWRITE =      2    write-flag & timer
   PREC   = normal    normal or accurate (medium, high low for compatibility)
   ISTART =      0    job   : 0-new  1-cont  2-samecut
   ICHARG =      2    charge: 1-file 2-atom 10-const
   ISPIN  =      1    spin polarized calculation?
   LNONCOLLINEAR =      F non collinear calculations
   LSORBIT =      F    spin-orbit coupling
   INIWAV =      1    electr: 0-lowe 1-rand  2-diag
   LASPH  =      F    aspherical Exc in radial PAW
 Electronic Relaxation 1
   ENCUT  =  173.8 eV  12.77 Ry    3.57 a.u.   4.31  4.31  4.31*2*pi/ulx,y,z
   ENINI  =  173.8     initial cutoff
   ENAUG  =  385.8 eV  augmentation charge cutoff
   NELM   =     60;   NELMIN=  2; NELMDL= -5     # of ELM steps 
   EDIFF  = 0.1E-03   stopping-criterion for ELM
   LREAL  =      F    real-space projection
   NLSPLINE    = F    spline interpolate recip. space projectors
   LCOMPAT=      F    compatible to vasp.4.4
   GGA_COMPAT  = T    GGA compatible to vasp.4.4-vasp.4.6
   LMAXPAW     = -100 max onsite density
   LMAXMIX     =    2 max onsite mixed and CHGCAR
   VOSKOWN=      0    Vosko Wilk Nusair interpolation
   ROPT   =    0.00000
 Ionic relaxation
   EDIFFG = 0.1E-02   stopping-criterion for IOM
   NSW    =      0    number of steps for IOM
   NBLOCK =      1;   KBLOCK =      1    inner block; outer block 
   IBRION =     -1    ionic relax: 0-MD 1-quasi-New 2-CG
   NFREE  =      0    steps in history (QN), initial steepest desc. (CG)
   ISIF   =      2    stress and relaxation
   IWAVPR =     10    prediction:  0-non 1-charg 2-wave 3-comb
   ISYM   =      2    0-nonsym 1-usesym 2-fastsym
   LCORR  =      T    Harris-Foulkes like correction to forces

   POTIM  = 0.5000    time-step for ionic-motion
   TEIN   =    0.0    initial temperature
   TEBEG  =    0.0;   TEEND  =   0.0 temperature during run
   SMASS  =  -3.00    Nose mass-parameter (am)
   estimated Nose-frequenzy (Omega)   =  0.10E-29 period in steps = 0.13E+47 mass=  -0.368E-27a.u.
   SCALEE = 1.0000    scale energy and forces
   NPACO  =    256;   APACO  = 10.0  distance and # of slots for P.C.
   PSTRESS=    0.0 pullay stress

  Mass of Ions in am
   POMASS =  72.61
  Ionic Valenz
   ZVAL   =   4.00
  Atomic Wigner-Seitz radii
   RWIGS  =  -1.00
  virtual crystal weights 
   VCA    =   1.00
   NELECT =       8.0000    total number of electrons
   NUPDOWN=      -1.0000    fix difference up-down

 DOS related values:
   EMIN   =  10.00;   EMAX   =-10.00  energy-range for DOS
   EFERMI =   0.00;   METHOD = LEGACY      
   ISMEAR =     0;   SIGMA  =   0.10  broadening in eV -4-tet -1-fermi 0-gaus

 Electronic relaxation 2 (details)
   IALGO  =     38    algorithm
   LDIAG  =      T    sub-space diagonalisation (order eigenvalues)
   LSUBROT=      F    optimize rotation matrix (better conditioning)
   TURBO    =      0    0=normal 1=particle mesh
   IRESTART =      0    0=no restart 2=restart with 2 vectors
   NREBOOT  =      0    no. of reboots
   NMIN     =      0    reboot dimension
   EREF     =   0.00    reference energy to select bands
   IMIX   =      4    mixing-type and parameters
     AMIX     =   0.40;   BMIX     =  1.00
     AMIX_MAG =   1.60;   BMIX_MAG =  1.00
     AMIN     =   0.10
     WC   =   100.;   INIMIX=   1;  MIXPRE=   1;  MAXMIX= -45

 Intra band minimization:
   WEIMIN = 0.0000     energy-eigenvalue tresh-hold
   EBREAK =  0.16E-05  absolut break condition
   DEPER  =   0.30     relativ break condition  

   TIME   =   0.40     timestep for ELM

  volume/ion in A,a.u.               =      22.85       154.20
  Fermi-wavevector in a.u.,A,eV,Ry     =   0.915788  1.730589 11.410770  0.838668
  Thomas-Fermi vector in A             =   2.040570
 
 Write flags
   LWAVE        =      T    write WAVECAR
   LDOWNSAMPLE  =      F    k-point downsampling of WAVECAR
   LCHARG       =      T    write CHGCAR
   LVTOT        =      F    write LOCPOT, total local potential
   LVHAR        =      F    write LOCPOT, Hartree potential only
   LELF         =      F    write electronic localiz. function (ELF)
   LORBIT       =      0    0 simple, 1 ext, 2 COOP (PROOUT), +10 PAW based schemes


 Dipole corrections
   LMONO  =      F    monopole corrections only (constant potential shift)
   LDIPOL =      F    correct potential (dipole corrections)
   IDIPOL =      0    1-x, 2-y, 3-z, 4-all directions 
   EPSILON=  1.0000000 bulk dielectric constant

 Exchange correlation treatment:
   GGA     =    --    GGA type
   LEXCH   =     8    internal setting for exchange type
   LIBXC   =     F    Libxc                    
   VOSKOWN =     0    Vosko Wilk Nusair interpolation
   LHFCALC =     F    Hartree Fock is set to
   LHFONE  =     F    Hartree Fock one center treatment
   AEXX    =    0.0000 exact exchange contribution

 Linear response parameters
   LEPSILON=     F    determine dielectric tensor
   LRPA    =     F    only Hartree local field effects (RPA)
   LNABLA  =     F    use nabla operator in PAW spheres
   LVEL    =     F    velocity operator in full k-point grid
   CSHIFT  =0.1000    complex shift for real part using Kramers Kronig
   OMEGAMAX=  -1.0    maximum frequency
   DEG_THRESHOLD= 0.2000000E-02 threshold for treating states as degnerate
   RTIME   =   -0.100 relaxation time in fs
  (WPLASMAI=    0.000 imaginary part of plasma frequency in eV, 0.658/RTIME)
   DFIELD  = 0.0000000 0.0000000 0.0000000 field for delta impulse in time
 
  Optional k-point grid parameters
   LKPOINTS_OPT  =     F    use optional k-point grid
   KPOINTS_OPT_MODE=     1    mode for optional k-point grid
 
 Orbital magnetization related:
   ORBITALMAG=     F  switch on orbital magnetization
   LCHIMAG   =     F  perturbation theory with respect to B field
   DQ        =  0.001000  dq finite difference perturbation B field
   LLRAUG    =     F  two centre corrections for induced B field
   LBONE     =     F  B-component reconstruction in AE one-centre
   LVGVCALC  =     T  calculate vGv susceptibility
   LVGVAPPL  =     F  apply vGv susceptibility instead of pGv for G=0

 Random number generation:
   RANDOM_GENERATOR = DEFAULT
   PCG_SEED         = not used


--------------------------------------------------------------------------------------------------------


 Static calculation
 charge density and potential will be updated during run
 non-spin polarized calculation
 Variant of blocked Davidson
 Davidson routine will perform the subspace rotation
 perform sub-space diagonalisation
    after iterative eigenvector-optimisation
 modified Broyden-mixing scheme, WC =      100.0
 initial mixing is a Kerker type mixing with AMIX =  0.4000 and BMIX =      1.0000
 Hartree-type preconditioning will be used
 using additional bands           12
 reciprocal scheme for non local part
 use partial core corrections
 calculate Harris-corrections to forces 
   (improved forces if not selfconsistent)
 use gradient corrections 
 use of overlap-Matrix (Vanderbilt PP)
 Gauss-broadening in eV      SIGMA  =   0.10


--------------------------------------------------------------------------------------------------------


  energy-cutoff  :      173.81
  volume of cell :       45.70
      direct lattice vectors                 reciprocal lattice vectors
     0.000000000  2.837700000  2.837700000    -0.176199034  0.176199034  0.176199034
     2.837700000  0.000000000  2.837700000     0.176199034 -0.176199034  0.176199034
     2.837700000  2.837700000  0.000000000     0.176199034  0.176199034 -0.176199034

  length of vectors
     4.013113826  4.013113826  4.013113826     0.305185680  0.305185680  0.305185680


 
 k-points in units of 2pi/SCALE and weight: K-Points                                
   0.00000000  0.00000000  0.00000000       0.016
  -0.04404976  0.04404976  0.04404976       0.125
  -0.08809952  0.08809952  0.08809952       0.062
   0.00000000  0.00000000  0.08809952       0.094
  -0.04404976  0.04404976  0.13214928       0.375
   0.08809952 -0.08809952 -0.00000000       0.188
   0.00000000  0.00000000  0.17619903       0.047
   0.17619903 -0.08809952  0.00000000       0.094
 
 k-points in reciprocal lattice and weights: K-Points                                
   0.00000000  0.00000000  0.00000000       0.016
   0.25000000  0.00000000 -0.00000000       0.125
   0.50000000  0.00000000 -0.00000000       0.062
   0.25000000  0.25000000  0.00000000       0.094
   0.50000000  0.25000000  0.00000000       0.375
  -0.25000000  0.25000000 -0.00000000       0.188
   0.50000000  0.50000000  0.00000000       0.047
  -0.25000000  0.50000000  0.25000000       0.094
 
 position of ions in fractional coordinates (direct lattice) 
   0.75000000  0.75000000  0.75000000
   0.50000000  0.50000000  0.50000000
 
 position of ions in cartesian coordinates  (Angst):
   4.25655000  4.25655000  4.25655000
   2.83770000  2.83770000  2.83770000
 


--------------------------------------------------------------------------------------------------------


 k-point   1 :   0.0000 0.0000 0.0000  plane waves:     259
 k-point   2 :   0.2500 0.0000-0.0000  plane waves:     244
 k-point   3 :   0.5000 0.0000-0.0000  plane waves:     242
 k-point   4 :   0.2500 0.2500 0.0000  plane waves:     234
 k-point   5 :   0.5000 0.2500 0.0000  plane waves:     238
 k-point   6 :  -0.2500 0.2500-0.0000  plane waves:     238
 k-point   7 :   0.5000 0.5000 0.0000  plane waves:     230
 k-point   8 :  -0.2500 0.5000 0.2500  plane waves:     224

 maximum and minimum number of plane-waves per node :       259      224

 maximum number of plane-waves:       259
 maximum index in each direction: 
   IXMAX=    4   IYMAX=    4   IZMAX=    4
   IXMIN=   -4   IYMIN=   -4   IZMIN=   -4


 serial   3D FFT for wavefunctions
 parallel 3D FFT for charge:
    minimum data exchange during FFTs selected (reduces bandwidth)


 total amount of memory used by VASP MPI-rank0    30549. kBytes
=======================================================================

   base      :      30000. kBytes
   nonl-proj :        235. kBytes
   fftplans  :         69. kBytes
   grid      :        191. kBytes
   one-center:         16. kBytes
   wavefun   :         38. kBytes
 
     INWAV:  cpu time      0.0000: real time      0.0000
 Broyden mixing: mesh for mixing (old mesh)
   NGX =  9   NGY =  9   NGZ =  9
  (NGX  = 28   NGY  = 28   NGZ  = 28)
  gives a total of    729 points

 initial charge density was supplied:
 charge density of overlapping atoms calculated
 number of electron       8.0000000 magnetization 
 keeping initial charge density in first step


--------------------------------------------------------------------------------------------------------


 Maximum index for augmentation-charges          294 (set IRDMAX)


--------------------------------------------------------------------------------------------------------


 First call to EWALD:  gamma=   0.496
 Maximum number of real-space cells 3x 3x 3
 Maximum number of reciprocal cells 3x 3x 3

    FEWALD:  cpu time      0.0011: real time      0.0011


--------------------------------------- Ionic step        1  -------------------------------------------




--------------------------------------- Iteration      1(   1)  ---------------------------------------


    POTLOK:  cpu time      0.0048: real time      0.0559
    SETDIJ:  cpu time      0.0044: real time      0.0077
     EDDAV:  cpu time      0.0238: real time      0.0927
       DOS:  cpu time      0.0006: real time      0.0050
    --------------------------------------------
      LOOP:  cpu time      0.0337: real time      0.1613

 eigenvalue-minimisations  :   304
 total energy-change (2. order) :-0.2428572E+01  (-0.1795879E+03)
 number of electron       8.0000000 magnetization 
 augmentation part        8.0000000 magnetization 

 Free energy of the ion-electron system (eV)
  ---------------------------------------------------
  alpha Z        PSCENC =        16.72879570
  Ewald energy   TEWEN  =      -218.68061112
  -Hartree energ DENC   =       -12.78773265
  -exchange      EXHF   =         0.00000000
  -V(xc)+E(xc)   XCENC  =       -15.05283543
  PAW double counting   =       176.29039040     -147.31525009
  entropy T*S    EENTRO =        -0.00398736
  eigenvalues    EBANDS =       -11.58833878
  atomic energy  EATOM  =       209.98099742
  Solvation  Ediel_sol  =         0.00000000
  ---------------------------------------------------
  free energy    TOTEN  =        -2.42857191 eV

  energy without entropy =       -2.42458455  energy(sigma->0) =       -2.42657823


--------------------------------------------------------------------------------------------------------




--------------------------------------- Iteration      1(   2)  ---------------------------------------


     EDDAV:  cpu time      0.0227: real time      0.0227
       DOS:  cpu time      0.0001: real time      0.0001
    --------------------------------------------
      LOOP:  cpu time      0.0228: real time      0.0228

 eigenvalue-minimisations  :   336
 total energy-change (2. order) :-0.6336792E+01  (-0.6325849E+01)
 number of electron       8.0000000 magnetization 
 augmentation part        8.0000000 magnetization 

 Free energy of the ion-electron system (eV)
  ---------------------------------------------------
  alpha Z        PSCENC =        16.72879570
  Ewald energy   TEWEN  =      -218.68061112
  -Hartree energ DENC   =       -12.78773265
  -exchange      EXHF   =         0.00000000
  -V(xc)+E(xc)   XCENC  =       -15.05283543
  PAW double counting   =       176.29039040     -147.31525009
  entropy T*S    EENTRO =        -0.00278159
  eigenvalues    EBANDS =       -17.92633689
  atomic energy  EATOM  =       209.98099742
  Solvation  Ediel_sol  =         0.00000000
  ---------------------------------------------------
  free energy    TOTEN  =        -8.76536427 eV

  energy without entropy =       -8.76258267  energy(sigma->0) =       -8.76397347


--------------------------------------------------------------------------------------------------------




--------------------------------------- Iteration      1(   3)  ---------------------------------------


     EDDAV:  cpu time      0.0248: real time      0.0249
       DOS:  cpu time      0.0001: real time      0.0001
    --------------------------------------------
      LOOP:  cpu time      0.0249: real time      0.0250

 eigenvalue-minimisations  :   352
 total energy-change (2. order) :-0.2320472E-01  (-0.2306100E-01)
 number of electron       8.0000000 magnetization 
 augmentation part        8.0000000 magnetization 

 Free energy of the ion-electron system (eV)
  ---------------------------------------------------
  alpha Z        PSCENC =        16.72879570
  Ewald energy   TEWEN  =      -218.68061112
  -Hartree energ DENC   =       -12.78773265
  -exchange      EXHF   =         0.00000000
  -V(xc)+E(xc)   XCENC  =       -15.05283543
  PAW double counting   =       176.29039040     -147.31525009
  entropy T*S    EENTRO =        -0.00280267
  eigenvalues    EBANDS =       -17.94952053
  atomic energy  EATOM  =       209.98099742
  Solvation  Ediel_sol  =         0.00000000
  ---------------------------------------------------
  free energy    TOTEN  =        -8.78856898 eV

  energy without entropy =       -8.78576631  energy(sigma->0) =       -8.78716765


--------------------------------------------------------------------------------------------------------




--------------------------------------- Iteration      1(   4)  ---------------------------------------


     EDDAV:  cpu time      0.0326: real time      0.0327
       DOS:  cpu time      0.0001: real time      0.0001
    --------------------------------------------
      LOOP:  cpu time      0.0328: real time      0.0328

 eigenvalue-minimisations  :   416
 total energy-change (2. order) :-0.9949088E-05  (-0.9948907E-05)
 number of electron       8.0000000 magnetization 
 augmentation part        8.0000000 magnetization 

 Free energy of the ion-electron system (eV)
  ---------------------------------------------------
  alpha Z        PSCENC =        16.72879570
  Ewald energy   TEWEN  =      -218.68061112
  -Hartree energ DENC   =       -12.78773265
  -exchange      EXHF   =         0.00000000
  -V(xc)+E(xc)   XCENC  =       -15.05283543
  PAW double counting   =       176.29039040     -147.31525009
  entropy T*S    EENTRO =        -0.00280266
  eigenvalues    EBANDS =       -17.94953049
  atomic energy  EATOM  =       209.98099742
  Solvation  Ediel_sol  =         0.00000000
  ---------------------------------------------------
  free energy    TOTEN  =        -8.78857893 eV

  energy without entropy =       -8.78577627  energy(sigma->0) =       -8.78717760


--------------------------------------------------------------------------------------------------------




--------------------------------------- Iteration      1(   5)  ---------------------------------------


     EDDAV:  cpu time      0.0231: real time      0.0231
       DOS:  cpu time      0.0001: real time      0.0001
    CHARGE:  cpu time      0.0013: real time      0.0164
    MIXING:  cpu time      0.0004: real time      0.0035
    --------------------------------------------
      LOOP:  cpu time      0.0249: real time      0.0432

 eigenvalue-minimisations  :   336
 total energy-change (2. order) :-0.5823608E-10  (-0.3830530E-10)
 number of electron       8.0000009 magnetization 
 augmentation part       -1.3006608 magnetization 

 Broyden mixing:
  rms(total) = 0.32573E+00    rms(broyden)= 0.32558E+00
  rms(prec ) = 0.71594E+00
  weight for this iteration     100.00

 Free energy of the ion-electron system (eV)
  ---------------------------------------------------
  alpha Z        PSCENC =        16.72879570
  Ewald energy   TEWEN  =      -218.68061112
  -Hartree energ DENC   =       -12.78773265
  -exchange      EXHF   =         0.00000000
  -V(xc)+E(xc)   XCENC  =       -15.05283543
  PAW double counting   =       176.29039040     -147.31525009
  entropy T*S    EENTRO =        -0.00280266
  eigenvalues    EBANDS =       -17.94953049
  atomic energy  EATOM  =       209.98099742
  Solvation  Ediel_sol  =         0.00000000
  ---------------------------------------------------
  free energy    TOTEN  =        -8.78857893 eV

  energy without entropy =       -8.78577627  energy(sigma->0) =       -8.78717760


--------------------------------------------------------------------------------------------------------




--------------------------------------- Iteration      1(   6)  ---------------------------------------


    POTLOK:  cpu time      0.0019: real time      0.0019
    SETDIJ:  cpu time      0.0015: real time      0.0015
     EDDAV:  cpu time      0.0210: real time      0.0210
       DOS:  cpu time      0.0001: real time      0.0001
    CHARGE:  cpu time      0.0010: real time      0.0010
    MIXING:  cpu time      0.0001: real time      0.0001
    --------------------------------------------
      LOOP:  cpu time      0.0257: real time      0.0258

 eigenvalue-minimisations  :   320
 total energy-change (2. order) : 0.7477288E-01  (-0.3978290E-02)
 number of electron       8.0000009 magnetization 
 augmentation part       -1.2901650 magnetization 

 Broyden mixing:
  rms(total) = 0.20021E+00    rms(broyden)= 0.20020E+00
  rms(prec ) = 0.43684E+00
  weight for this iteration     100.00

 eigenvalues of (default mixing * dielectric matrix)
  average eigenvalue GAMMA=   2.5832
  2.5832

 Free energy of the ion-electron system (eV)
  ---------------------------------------------------
  alpha Z        PSCENC =        16.72879570
  Ewald energy   TEWEN  =      -218.68061112
  -Hartree energ DENC   =       -13.97815302
  -exchange      EXHF   =         0.00000000
  -V(xc)+E(xc)   XCENC  =       -14.83474521
  PAW double counting   =       277.62185893     -248.79597845
  entropy T*S    EENTRO =        -0.00317822
  eigenvalues    EBANDS =       -16.75279208
  atomic energy  EATOM  =       209.98099742
  Solvation  Ediel_sol  =         0.00000000
  ---------------------------------------------------
  free energy    TOTEN  =        -8.71380605 eV

  energy without entropy =       -8.71062784  energy(sigma->0) =       -8.71221694


--------------------------------------------------------------------------------------------------------




--------------------------------------- Iteration      1(   7)  ---------------------------------------


    POTLOK:  cpu time      0.0018: real time      0.0018
    SETDIJ:  cpu time      0.0013: real time      0.0013
     EDDAV:  cpu time      0.0236: real time      0.0236
       DOS:  cpu time      0.0001: real time      0.0001
    CHARGE:  cpu time      0.0011: real time      0.0011
    MIXING:  cpu time      0.0002: real time      0.0008
    --------------------------------------------
      LOOP:  cpu time      0.0281: real time      0.0287

 eigenvalue-minimisations  :   352
 total energy-change (2. order) : 0.3164121E-01  (-0.8031397E-02)
 number of electron       8.0000009 magnetization 
 augmentation part       -1.2773588 magnetization 

 Broyden mixing:
  rms(total) = 0.13354E-01    rms(broyden)= 0.13352E-01
  rms(prec ) = 0.33495E-01
  weight for this iteration     100.00

 eigenvalues of (default mixing * dielectric matrix)
  average eigenvalue GAMMA=   2.4285
  2.4285  2.4285

 Free energy of the ion-electron system (eV)
  ---------------------------------------------------
  alpha Z        PSCENC =        16.72879570
  Ewald energy   TEWEN  =      -218.68061112
  -Hartree energ DENC   =       -16.03101426
  -exchange      EXHF   =         0.00000000
  -V(xc)+E(xc)   XCENC  =       -14.44266968
  PAW double counting   =       491.79597830     -463.18413754
  entropy T*S    EENTRO =        -0.00430582
  eigenvalues    EBANDS =       -14.84519784
  atomic energy  EATOM  =       209.98099742
  Solvation  Ediel_sol  =         0.00000000
  ---------------------------------------------------
  free energy    TOTEN  =        -8.68216484 eV

  energy without entropy =       -8.67785902  energy(sigma->0) =       -8.68001193


--------------------------------------------------------------------------------------------------------




--------------------------------------- Iteration      1(   8)  ---------------------------------------


    POTLOK:  cpu time      0.0017: real time      0.0017
    SETDIJ:  cpu time      0.0014: real time      0.0014
     EDDAV:  cpu time      0.0189: real time      0.0189
       DOS:  cpu time      0.0001: real time      0.0001
    CHARGE:  cpu time      0.0010: real time      0.0010
    MIXING:  cpu time      0.0001: real time      0.0001
    --------------------------------------------
      LOOP:  cpu time      0.0232: real time      0.0232

 eigenvalue-minimisations  :   304
 total energy-change (2. order) :-0.1609552E-02  (-0.2291554E-03)
 number of electron       8.0000009 magnetization 
 augmentation part       -1.2779719 magnetization 

 Broyden mixing:
  rms(total) = 0.31889E-02    rms(broyden)= 0.31887E-02
  rms(prec ) = 0.96082E-02
  weight for this iteration     100.00

 eigenvalues of (default mixing * dielectric matrix)
  average eigenvalue GAMMA=   2.1978
  1.2912  2.9886  2.3135

 Free energy of the ion-electron system (eV)
  ---------------------------------------------------
  alpha Z        PSCENC =        16.72879570
  Ewald energy   TEWEN  =      -218.68061112
  -Hartree energ DENC   =       -16.02803188
  -exchange      EXHF   =         0.00000000
  -V(xc)+E(xc)   XCENC  =       -14.42077323
  PAW double counting   =       491.70940038     -463.08102670
  entropy T*S    EENTRO =        -0.00404679
  eigenvalues    EBANDS =       -14.88847817
  atomic energy  EATOM  =       209.98099742
  Solvation  Ediel_sol  =         0.00000000
  ---------------------------------------------------
  free energy    TOTEN  =        -8.68377439 eV

  energy without entropy =       -8.67972761  energy(sigma->0) =       -8.68175100


--------------------------------------------------------------------------------------------------------




--------------------------------------- Iteration      1(   9)  ---------------------------------------


    POTLOK:  cpu time      0.0018: real time      0.0018
    SETDIJ:  cpu time      0.0014: real time      0.0014
     EDDAV:  cpu time      0.0281: real time      0.0281
       DOS:  cpu time      0.0001: real time      0.0001
    CHARGE:  cpu time      0.0010: real time      0.0010
    MIXING:  cpu time      0.0001: real time      0.0001
    --------------------------------------------
      LOOP:  cpu time      0.0325: real time      0.0326

 eigenvalue-minimisations  :   384
 total energy-change (2. order) :-0.2460913E-03  (-0.2659209E-04)
 number of electron       8.0000009 magnetization 
 augmentation part       -1.2780695 magnetization 

 Broyden mixing:
  rms(total) = 0.22346E-02    rms(broyden)= 0.22346E-02
  rms(prec ) = 0.38851E-02
  weight for this iteration     100.00

 eigenvalues of (default mixing * dielectric matrix)
  average eigenvalue GAMMA=   2.0955
  2.9500  2.3453  2.1894  0.8974

 Free energy of the ion-electron system (eV)
  ---------------------------------------------------
  alpha Z        PSCENC =        16.72879570
  Ewald energy   TEWEN  =      -218.68061112
  -Hartree energ DENC   =       -16.06954612
  -exchange      EXHF   =         0.00000000
  -V(xc)+E(xc)   XCENC  =       -14.40935798
  PAW double counting   =       493.49301168     -464.86256492
  entropy T*S    EENTRO =        -0.00398319
  eigenvalues    EBANDS =       -14.86076195
  atomic energy  EATOM  =       209.98099742
  Solvation  Ediel_sol  =         0.00000000
  ---------------------------------------------------
  free energy    TOTEN  =        -8.68402049 eV

  energy without entropy =       -8.68003729  energy(sigma->0) =       -8.68202889


--------------------------------------------------------------------------------------------------------




--------------------------------------- Iteration      1(  10)  ---------------------------------------


    POTLOK:  cpu time      0.0017: real time      0.0017
    SETDIJ:  cpu time      0.0013: real time      0.0013
     EDDAV:  cpu time      0.0292: real time      0.0292
       DOS:  cpu time      0.0001: real time      0.0001
    --------------------------------------------
      LOOP:  cpu time      0.0324: real time      0.0324

 eigenvalue-minimisations  :   384
 total energy-change (2. order) :-0.8188480E-05  (-0.2699471E-05)
 number of electron       8.0000009 magnetization 
 augmentation part       -1.2780695 magnetization 

 Free energy of the ion-electron system (eV)
  ---------------------------------------------------
  alpha Z        PSCENC =        16.72879570
  Ewald energy   TEWEN  =      -218.68061112
  -Hartree energ DENC   =       -16.08322386
  -exchange      EXHF   =         0.00000000
  -V(xc)+E(xc)   XCENC  =       -14.41151120
  PAW double counting   =       490.38945594     -461.75838678
  entropy T*S    EENTRO =        -0.00397683
  eigenvalues    EBANDS =       -14.84556793
  atomic energy  EATOM  =       209.98099742
  Solvation  Ediel_sol  =         0.00000000
  ---------------------------------------------------
  free energy    TOTEN  =        -8.68402867 eV

  energy without entropy =       -8.68005184  energy(sigma->0) =       -8.68204026


--------------------------------------------------------------------------------------------------------




 average (electrostatic) potential at core
  the test charge radii are     1.1631
  (the norm of the test charge is              1.0000)
       1 -32.9903       2 -32.9903
 
 
 
 E-fermi :   3.7738     XC(G=0):  -9.0625     alpha+bet : -9.0717

 Fermi energy:         3.7738202141

 k-point     1 :       0.0000    0.0000    0.0000
  band No.  band energies     occupation 
      1      -8.9745      2.00000
      2       3.7187      1.56473
      3       3.7425      1.34230
      4       3.7425      1.34176
      5       3.7425      1.34176
      6       6.2492      0.00000
      7       6.2492      0.00000
      8       6.2492      0.00000
      9      10.1388      0.00000
     10      12.9558      0.00000
     11      12.9558      0.00000
     12      14.4126      0.00000
     13      14.4126      0.00000
     14      14.4126      0.00000
     15      17.5134      0.00000
     16      27.8406      0.00000

 k-point     2 :       0.2500    0.0000   -0.0000
  band No.  band energies     occupation 
      1      -8.2407      2.00000
      2      -0.9715      2.00000
      3       2.8601      2.00000
      4       2.8601      2.00000
      5       4.3748      0.00000
      6       7.3225      0.00000
      7       7.3225      0.00000
      8       9.3233      0.00000
      9      11.7135      0.00000
     10      11.9079      0.00000
     11      11.9079      0.00000
     12      14.5475      0.00000
     13      18.4422      0.00000
     14      18.4422      0.00000
     15      21.3205      0.00000
     16      21.3945      0.00000

 k-point     3 :       0.5000    0.0000   -0.0000
  band No.  band energies     occupation 
      1      -6.9123      2.00000
      2      -3.8311      2.00000
      3       2.3403      2.00000
      4       2.3404      2.00000
      5       3.8893      0.10236
      6       7.4320      0.00000
      7       7.4320      0.00000
      8      10.8273      0.00000
      9      14.2241      0.00000
     10      14.7241      0.00000
     11      14.7952      0.00000
     12      14.7953      0.00000
     13      15.7867      0.00000
     14      15.7867      0.00000
     15      22.2902      0.00000
     16      23.4464      0.00000

 k-point     4 :       0.2500    0.2500    0.0000
  band No.  band energies     occupation 
      1      -7.9747      2.00000
      2      -0.9738      2.00000
      3       1.7085      2.00000
      4       1.7086      2.00000
      5       4.7335      0.00000
      6       6.4455      0.00000
      7       9.5070      0.00000
      8       9.5070      0.00000
      9      10.7460      0.00000
     10      13.8349      0.00000
     11      13.9819      0.00000
     12      16.4825      0.00000
     13      16.4825      0.00000
     14      17.1656      0.00000
     15      20.9784      0.00000
     16      20.9784      0.00000

 k-point     5 :       0.5000    0.2500    0.0000
  band No.  band energies     occupation 
      1      -6.5015      2.00000
      2      -3.6270      2.00000
      3       0.0282      2.00000
      4       1.3462      2.00000
      5       5.1280      0.00000
      6       7.9080      0.00000
      7       9.1309      0.00000
      8       9.8716      0.00000
      9      13.6263      0.00000
     10      14.8840      0.00000
     11      15.3930      0.00000
     12      15.9011      0.00000
     13      16.7578      0.00000
     14      20.2234      0.00000
     15      21.2769      0.00000
     16      22.1715      0.00000

 k-point     6 :      -0.2500    0.2500   -0.0000
  band No.  band energies     occupation 
      1      -7.1101      2.00000
      2      -2.7754      2.00000
      3      -0.1101      2.00000
      4       2.2397      2.00000
      5       5.6645      0.00000
      6       8.4678      0.00000
      7       8.8125      0.00000
      8       8.9940      0.00000
      9      11.2737      0.00000
     10      13.0996      0.00000
     11      15.5305      0.00000
     12      16.2021      0.00000
     13      17.2520      0.00000
     14      19.8606      0.00000
     15      21.2496      0.00000
     16      22.0736      0.00000

 k-point     7 :       0.5000    0.5000    0.0000
  band No.  band energies     occupation 
      1      -5.1234      2.00000
      2      -5.1234      2.00000
      3       0.6783      2.00000
      4       0.6783      2.00000
      5       4.4717      0.00000
      6       4.4717      0.00000
      7      13.1364      0.00000
      8      13.1364      0.00000
      9      15.2489      0.00000
     10      15.2489      0.00000
     11      16.1920      0.00000
     12      16.1920      0.00000
     13      17.0695      0.00000
     14      17.0695      0.00000
     15      22.5539      0.00000
     16      22.5539      0.00000

 k-point     8 :      -0.2500    0.5000    0.2500
  band No.  band energies     occupation 
      1      -5.0276      2.00000
      2      -5.0276      2.00000
      3      -0.1483      2.00000
      4      -0.1483      2.00000
      5       8.0050      0.00000
      6       8.0050      0.00000
      7       8.4154      0.00000
      8       8.4154      0.00000
      9      14.5877      0.00000
     10      14.5877      0.00000
     11      16.4800      0.00000
     12      16.4800      0.00000
     13      19.9014      0.00000
     14      19.9014      0.00000
     15      20.7191      0.00000
     16      20.7191      0.00000


--------------------------------------------------------------------------------------------------------


 soft charge-density along one line, spin component           1
         0         1         2         3         4         5         6         7         8         9
 total charge-density along one line
 
 pseudopotential strength for first ion, spin component:           1
 14.500  18.092   0.000   0.000   0.000   0.000   0.000   0.000
 18.092  22.587   0.000   0.000   0.000   0.000   0.000   0.000
  0.000   0.000   3.230  -0.000  -0.000   5.502  -0.000  -0.000
  0.000   0.000  -0.000   3.230  -0.000  -0.000   5.502  -0.000
  0.000   0.000  -0.000  -0.000   3.230  -0.000  -0.000   5.502
  0.000   0.000   5.502  -0.000  -0.000   9.430  -0.000  -0.000
  0.000   0.000  -0.000   5.502  -0.000  -0.000   9.430  -0.000
  0.000   0.000  -0.000  -0.000   5.502  -0.000  -0.000   9.430
 -0.000  -0.000   0.000  -0.002   0.000   0.000  -0.004   0.000
 -0.000  -0.000   0.000   0.000  -0.002   0.000   0.000  -0.004
 -0.000  -0.000  -0.000   0.000  -0.000  -0.000   0.000  -0.000
 -0.000  -0.000  -0.002   0.000   0.000  -0.004   0.000   0.000
 -0.000  -0.000  -0.000  -0.000   0.000  -0.000  -0.000   0.000
 total augmentation occupancy for first ion, spin component:           1
  3.730  -1.152   0.000   0.000   0.000   0.000   0.000   0.000   0.000   0.000   0.000  -0.000  -0.000
 -1.152   0.500   0.000   0.000   0.000  -0.000  -0.000  -0.000  -0.000   0.000  -0.000   0.000   0.000
  0.000   0.000   2.213   0.000  -0.000  -0.402  -0.000   0.000  -0.000   0.000   0.000  -0.193  -0.000
  0.000   0.000   0.000   2.213  -0.000  -0.000  -0.402  -0.000  -0.193   0.000   0.000  -0.000  -0.000
  0.000   0.000  -0.000   0.000   2.213   0.000  -0.000  -0.402  -0.000  -0.193  -0.000   0.000   0.000
  0.000  -0.000  -0.402  -0.000   0.000   0.080   0.000  -0.000   0.000  -0.000  -0.000   0.035   0.000
  0.000  -0.000  -0.000  -0.402  -0.000   0.000   0.080   0.000   0.035  -0.000   0.000   0.000   0.000
  0.000  -0.000   0.000  -0.000  -0.402  -0.000   0.000   0.080   0.000   0.035   0.000  -0.000  -0.000
  0.000  -0.000  -0.000  -0.193  -0.000   0.000   0.035   0.000   0.028   0.000   0.000   0.000   0.000
  0.000   0.000   0.000   0.000  -0.193  -0.000  -0.000   0.035   0.000   0.028   0.000  -0.000  -0.000
  0.000  -0.000   0.000   0.000  -0.000  -0.000   0.000   0.000   0.000   0.000   0.008  -0.000  -0.000
 -0.000   0.000  -0.193  -0.000   0.000   0.035   0.000  -0.000   0.000  -0.000  -0.000   0.028   0.000
 -0.000   0.000  -0.000  -0.000   0.000   0.000   0.000  -0.000   0.000  -0.000  -0.000   0.000   0.008


------------------------ aborting loop because EDIFF is reached ----------------------------------------


    CHARGE:  cpu time      0.0011: real time      0.0011
    FORLOC:  cpu time      0.0001: real time      0.0001
    FORNL :  cpu time      0.0008: real time      0.0008
    STRESS:  cpu time      0.0095: real time      0.0095
    FORCOR:  cpu time      0.0014: real time      0.0014
    FORHAR:  cpu time      0.0004: real time      0.0004
    MIXING:  cpu time      0.0001: real time      0.0001
    OFIELD:  cpu time      0.0000: real time      0.0000

  FORCE on cell =-STRESS in cart. coord.  units (eV):
  Direction    XX          YY          ZZ          XY          YZ          ZX
  --------------------------------------------------------------------------------------
  Alpha Z    16.72880    16.72880    16.72880
  Ewald     -72.89357   -72.89357   -72.89357     0.00000     0.00000     0.00000
  Hartree     5.36020     5.36020     5.36020     0.00000     0.00000     0.00000
  E(xc)     -27.79016   -27.79016   -27.79016     0.00001     0.00001     0.00001
  Local     -23.72878   -23.72878   -23.72878     0.00013     0.00013     0.00013
  n-local    41.04890    41.22609    38.02081     1.43948    -0.47888     0.47857
  augment     2.37478     2.37478     2.37478    -0.00014    -0.00014    -0.00014
  Kinetic    63.49002    62.97951    56.81006     5.09098    -1.49563     1.49587
  Fock        0.00000     0.00000     0.00000     0.00000     0.00000     0.00000
  -------------------------------------------------------------------------------------
  Total       1.24307     1.24307     1.24307     0.00000     0.00000    -0.00000
  in kB      43.57889    43.57889    43.57889     0.00000     0.00000    -0.00000
  external pressure =       43.58 kB  Pullay stress =        0.00 kB


 VOLUME and BASIS-vectors are now :
 -----------------------------------------------------------------------------
  energy-cutoff  :      173.81
  volume of cell :       45.70
      direct lattice vectors                 reciprocal lattice vectors
     0.000000000  2.837700000  2.837700000    -0.176199034  0.176199034  0.176199034
     2.837700000  0.000000000  2.837700000     0.176199034 -0.176199034  0.176199034
     2.837700000  2.837700000  0.000000000     0.176199034  0.176199034 -0.176199034

  length of vectors
     4.013113826  4.013113826  4.013113826     0.305185680  0.305185680  0.305185680


 FORCES acting on ions
    electron-ion (+dipol)            ewald-force                    non-local-force                 convergence-correction
 -----------------------------------------------------------------------------------------------
   -.202E-05 -.202E-05 -.152E-05   0.379E-14 -.317E-14 -.371E-14   0.531E-16 0.392E-16 0.363E-16   0.903E-07 0.903E-07 0.903E-07
   0.202E-05 0.202E-05 0.152E-05   -.374E-14 0.343E-14 0.369E-14   -.439E-16 -.335E-16 -.286E-16   -.903E-07 -.903E-07 -.903E-07
 -----------------------------------------------------------------------------------------------
   -.354E-14 0.393E-13 -.679E-14   0.427E-16 0.265E-15 -.168E-16   0.921E-17 0.575E-17 0.778E-17   -.401E-14 -.320E-14 0.758E-15
 
 
 POSITION                                       TOTAL-FORCE (eV/Angst)
 -----------------------------------------------------------------------------------
      4.25655      4.25655      4.25655        -0.000000     -0.000000     -0.000000
      2.83770      2.83770      2.83770         0.000000      0.000000      0.000000
 -----------------------------------------------------------------------------------
    total drift:                               -0.000000      0.000000     -0.000000


--------------------------------------------------------------------------------------------------------



  FREE ENERGIE OF THE ION-ELECTRON SYSTEM (eV)
  ---------------------------------------------------
  free  energy   TOTEN  =        -8.68402867 eV

  energy  without entropy=       -8.68005184  energy(sigma->0) =       -8.68204026
 


--------------------------------------------------------------------------------------------------------


    POTLOK:  cpu time      0.0031: real time      0.0031


--------------------------------------------------------------------------------------------------------


 writing wavefunctions
     LOOP+:  cpu time      0.3231: real time      0.4879
    4ORBIT:  cpu time      0.0000: real time      0.0010

 total amount of memory used by VASP MPI-rank0    30549. kBytes
=======================================================================

   base      :      30000. kBytes
   nonl-proj :        235. kBytes
   fftplans  :         69. kBytes
   grid      :        191. kBytes
   one-center:         16. kBytes
   wavefun   :         38. kBytes
 
  
  
 General timing and accounting informations for this job:
 ========================================================
  
                  Total CPU time used (sec):        2.471
                            User time (sec):        0.593
                          System time (sec):        1.879
                         Elapsed time (sec):        4.113
  
                   Maximum memory used (kb):      121408.
                   Average memory used (kb):          N/A
  
                          Minor page faults:         8231
                          Major page faults:         3204
                 Voluntary context switches:         1401
