<?xml version="1.0" encoding="ISO-8859-1"?>
<modeling>
 <generator>
  <i name="program" type="string">vasp </i>
  <i name="version" type="string">6.4.0  </i>
  <i name="subversion" type="string">14Feb23 (build Mar 14 2023 01:08:06) complex                          parallel </i>
  <i name="platform" type="string">LinuxIFC </i>
  <i name="date" type="string">2024 04 19 </i>
  <i name="time" type="string">17:23:19 </i>
 </generator>
 <incar>
  <i type="int" name="ISMEAR">     0</i>
  <i name="SIGMA">      0.10000000</i>
 </incar>
 <primitive_cell>
  <structure name="primitive_cell" >
   <crystal>
    <varray name="basis" >
     <v>       0.00000000       2.83770000       2.83770000 </v>
     <v>       2.83770000       0.00000000       2.83770000 </v>
     <v>       2.83770000       2.83770000       0.00000000 </v>
    </varray>
    <i name="volume">     45.70139284 </i>
    <varray name="rec_basis" >
     <v>      -0.17619903       0.17619903       0.17619903 </v>
     <v>       0.17619903      -0.17619903       0.17619903 </v>
     <v>       0.17619903       0.17619903      -0.17619903 </v>
    </varray>
   </crystal>
   <varray name="positions" >
    <v>       0.75000000       0.75000000       0.75000000 </v>
    <v>       0.50000000       0.50000000       0.50000000 </v>
   </varray>
  </structure>
  <varray name="primitive_index" >
   <v type="int" >        1 </v>
   <v type="int" >        2 </v>
  </varray>
 </primitive_cell>
 <kpoints>
  <generation param="Gamma">
   <v type="int" name="divisions">       4        4        4 </v>
   <v name="usershift">      0.00000000       0.00000000       0.00000000 </v>
   <v name="genvec1">      0.25000000      -0.00000000       0.00000000 </v>
   <v name="genvec2">     -0.00000000       0.25000000      -0.00000000 </v>
   <v name="genvec3">      0.00000000       0.00000000       0.25000000 </v>
   <v name="shift">      0.00000000       0.00000000       0.00000000 </v>
  </generation>
  <varray name="kpointlist" >
   <v>       0.00000000       0.00000000       0.00000000 </v>
   <v>       0.25000000       0.00000000      -0.00000000 </v>
   <v>       0.50000000       0.00000000      -0.00000000 </v>
   <v>       0.25000000       0.25000000       0.00000000 </v>
   <v>       0.50000000       0.25000000       0.00000000 </v>
   <v>      -0.25000000       0.25000000      -0.00000000 </v>
   <v>       0.50000000       0.50000000       0.00000000 </v>
   <v>      -0.25000000       0.50000000       0.25000000 </v>
  </varray>
  <varray name="weights" >
   <v>       0.01562500 </v>
   <v>       0.12500000 </v>
   <v>       0.06250000 </v>
   <v>       0.09375000 </v>
   <v>       0.37500000 </v>
   <v>       0.18750000 </v>
   <v>       0.04687500 </v>
   <v>       0.09375000 </v>
  </varray>
 </kpoints>
 <parameters>
  <separator name="general" >
   <i type="string" name="SYSTEM">unknown system</i>
   <i type="logical" name="LCOMPAT"> F  </i>
  </separator>
  <separator name="electronic" >
   <i type="string" name="PREC">normal</i>
   <i name="ENMAX">    173.80700000</i>
   <i name="ENAUG">    385.84300000</i>
   <i name="EDIFF">      0.00010000</i>
   <i type="int" name="IALGO">    38</i>
   <i type="int" name="IWAVPR">    10</i>
   <i type="int" name="NBANDS">    16</i>
   <i type="int" name="NBANDSLOW">    -1</i>
   <i type="int" name="NBANDSHIGH">    -1</i>
   <i name="NELECT">      8.00000000</i>
   <i type="int" name="TURBO">     0</i>
   <i type="int" name="IRESTART">     0</i>
   <i type="int" name="NREBOOT">     0</i>
   <i type="int" name="NMIN">     0</i>
   <i name="EREF">      0.00000000</i>
   <separator name="electronic smearing" >
    <i type="int" name="ISMEAR">     0</i>
    <i name="SIGMA">      0.10000000</i>
    <i name="KSPACING">      0.50000000</i>
    <i type="logical" name="KGAMMA"> T  </i>
    <i type="logical" name="KBLOWUP"> T  </i>
   </separator>
   <separator name="electronic projectors" >
    <i type="logical" name="LREAL"> F  </i>
    <v name="ROPT">      0.00000000</v>
    <i type="int" name="LMAXPAW">  -100</i>
    <i type="int" name="LMAXMIX">     2</i>
    <i type="logical" name="NLSPLINE"> F  </i>
   </separator>
   <separator name="electronic startup" >
    <i type="int" name="ISTART">     0</i>
    <i type="int" name="ICHARG">     2</i>
    <i type="int" name="INIWAV">     1</i>
   </separator>
   <separator name="electronic spin" >
    <i type="int" name="ISPIN">     1</i>
    <i type="logical" name="LNONCOLLINEAR"> F  </i>
    <v name="MAGMOM">      1.00000000      1.00000000</v>
    <i name="NUPDOWN">     -1.00000000</i>
    <i type="logical" name="LSORBIT"> F  </i>
    <v name="SAXIS">      0.00000000      0.00000000      1.00000000</v>
    <i type="logical" name="LSPIRAL"> F  </i>
    <v name="QSPIRAL">      0.00000000      0.00000000      0.00000000</v>
    <i type="logical" name="LZEROZ"> F  </i>
   </separator>
   <separator name="electronic exchange-correlation" >
    <i type="logical" name="LASPH"> F  </i>
    <i type="logical" name="LMETAGGA"> F  </i>
   </separator>
   <separator name="electronic convergence" >
    <i type="int" name="NELM">    60</i>
    <i type="int" name="NELMDL">    -5</i>
    <i type="int" name="NELMIN">     2</i>
    <i name="ENINI">    173.80700000</i>
    <separator name="electronic convergence detail" >
     <i type="logical" name="LDIAG"> T  </i>
     <i type="logical" name="LSUBROT"> F  </i>
     <i name="WEIMIN">      0.00000000</i>
     <i name="EBREAK">      0.00000156</i>
     <i name="DEPER">      0.30000000</i>
     <i type="int" name="NRMM">     4</i>
     <i name="TIME">      0.40000000</i>
    </separator>
   </separator>
   <separator name="electronic mixer" >
    <i name="AMIX">      0.40000000</i>
    <i name="BMIX">      1.00000000</i>
    <i name="AMIN">      0.10000000</i>
    <i name="AMIX_MAG">      1.60000000</i>
    <i name="BMIX_MAG">      1.00000000</i>
    <separator name="electronic mixer details" >
     <i type="int" name="IMIX">     4</i>
     <i type="logical" name="MIXFIRST"> F  </i>
     <i type="int" name="MAXMIX">   -45</i>
     <i name="WC">    100.00000000</i>
     <i type="int" name="INIMIX">     1</i>
     <i type="int" name="MIXPRE">     1</i>
     <i type="int" name="MREMOVE">     5</i>
    </separator>
   </separator>
   <separator name="electronic dipolcorrection" >
    <i type="logical" name="LDIPOL"> F  </i>
    <i type="logical" name="LMONO"> F  </i>
    <i type="int" name="IDIPOL">     0</i>
    <i name="EPSILON">      1.00000000</i>
    <v name="DIPOL">   -100.00000000   -100.00000000   -100.00000000</v>
    <i name="EFIELD">      0.00000000</i>
   </separator>
  </separator>
  <separator name="grids" >
   <i type="int" name="NGX">    14</i>
   <i type="int" name="NGY">    14</i>
   <i type="int" name="NGZ">    14</i>
   <i type="int" name="NGXF">    28</i>
   <i type="int" name="NGYF">    28</i>
   <i type="int" name="NGZF">    28</i>
   <i type="logical" name="ADDGRID"> F  </i>
  </separator>
  <separator name="ionic" >
   <i type="int" name="NSW">     0</i>
   <i type="int" name="IBRION">    -1</i>
   <i type="int" name="MDALGO">     0</i>
   <i type="int" name="ISIF">     2</i>
   <i name="PSTRESS">      0.00000000</i>
   <i name="EDIFFG">      0.00100000</i>
   <i type="int" name="NFREE">     0</i>
   <i name="POTIM">      0.50000000</i>
   <i name="SMASS">     -3.00000000</i>
   <i name="SCALEE">      1.00000000</i>
  </separator>
  <separator name="ionic md" >
   <i name="TEBEG">      0.00010000</i>
   <i name="TEEND">      0.00010000</i>
   <i type="int" name="NBLOCK">     1</i>
   <i type="int" name="KBLOCK">     1</i>
   <i type="int" name="NPACO">   256</i>
   <i name="APACO">     10.00000000</i>
  </separator>
  <separator name="symmetry" >
   <i type="int" name="ISYM">     2</i>
   <i name="SYMPREC">      0.00001000</i>
  </separator>
  <separator name="dos" >
   <i type="int" name="LORBIT">     0</i>
   <v name="RWIGS">     -1.00000000</v>
   <i type="int" name="NEDOS">   301</i>
   <i name="EMIN">     10.00000000</i>
   <i name="EMAX">    -10.00000000</i>
   <i name="EFERMI">      0.00000000</i>
  </separator>
  <separator name="writing" >
   <i type="int" name="NWRITE">     2</i>
   <i type="logical" name="LWAVE"> T  </i>
   <i type="logical" name="LDOWNSAMPLE"> F  </i>
   <i type="logical" name="LCHARG"> T  </i>
   <i type="logical" name="LPARD"> F  </i>
   <i type="logical" name="LVTOT"> F  </i>
   <i type="logical" name="LVHAR"> F  </i>
   <i type="logical" name="LELF"> F  </i>
   <i type="logical" name="LOPTICS"> F  </i>
   <v name="STM">      0.00000000      0.00000000      0.00000000      0.00000000      0.00000000      0.00000000      0.00000000</v>
  </separator>
  <separator name="performance" >
   <i type="int" name="NPAR">    16</i>
   <i type="int" name="NSIM">     4</i>
   <i type="int" name="NBLK">    -1</i>
   <i type="logical" name="LPLANE"> T  </i>
   <i type="logical" name="LSCALAPACK"> T  </i>
   <i type="logical" name="LSCAAWARE"> F  </i>
   <i type="logical" name="LSCALU"> F  </i>
   <i type="logical" name="LASYNC"> F  </i>
   <i type="logical" name="LORBITALREAL"> F  </i>
  </separator>
  <separator name="miscellaneous" >
   <i type="int" name="IDIOT">     3</i>
   <i type="int" name="PHON_NSTRUCT">    -1</i>
   <i type="logical" name="LMUSIC"> F  </i>
   <v name="POMASS">     72.61000000</v>
   <v name="DARWINR">      0.00000000</v>
   <v name="DARWINV">      1.00000000</v>
   <i type="logical" name="LCORR"> T  </i>
  </separator>
  <i type="logical" name="GGA_COMPAT"> T  </i>
  <i type="logical" name="LBERRY"> F  </i>
  <i type="int" name="ICORELEVEL">     0</i>
  <i type="logical" name="LDAU"> F  </i>
  <i type="int" name="I_CONSTRAINED_M">     0</i>
  <separator name="electronic exchange-correlation" >
   <i type="string" name="GGA">--</i>
   <i type="int" name="VOSKOWN">     0</i>
   <i type="logical" name="LHFCALC"> F  </i>
   <i type="string" name="PRECFOCK"></i>
   <i type="logical" name="LSYMGRAD"> F  </i>
   <i type="logical" name="LHFONE"> F  </i>
   <i type="logical" name="LRHFCALC"> F  </i>
   <i type="logical" name="LTHOMAS"> F  </i>
   <i type="logical" name="LMODELHF"> F  </i>
   <i type="logical" name="LFOCKACE"> F  </i>
   <i name="ENCUT4O">     -1.00000000</i>
   <i type="int" name="EXXOEP">     0</i>
   <i type="int" name="FOURORBIT">     0</i>
   <i name="AEXX">      0.00000000</i>
   <i name="HFALPHA">      0.00000000</i>
   <i name="MCALPHA">      0.00000000</i>
   <i name="ALDAX">      1.00000000</i>
   <i name="AGGAX">      1.00000000</i>
   <i name="ALDAC">      1.00000000</i>
   <i name="AGGAC">      1.00000000</i>
   <i type="int" name="NKREDX">     1</i>
   <i type="int" name="NKREDY">     1</i>
   <i type="int" name="NKREDZ">     1</i>
   <i type="logical" name="SHIFTRED"> F  </i>
   <i type="logical" name="ODDONLY"> F  </i>
   <i type="logical" name="EVENONLY"> F  </i>
   <i type="int" name="LMAXFOCK">     0</i>
   <i type="int" name="NMAXFOCKAE">     0</i>
   <i type="logical" name="LFOCKAEDFT"> F  </i>
   <i name="HFSCREEN">      0.00000000</i>
   <i name="HFSCREENC">      0.00000000</i>
   <i type="int" name="NBANDSGWLOW">     0</i>
  </separator>
  <separator name="vdW DFT" >
   <i type="logical" name="LUSE_VDW"> F  </i>
   <i type="int" name="IVDW_NL">     1</i>
   <i type="logical" name="LSPIN_VDW"> F  </i>
   <i name="Zab_VDW">     -0.84910000</i>
   <i name="PARAM1">      0.12340000</i>
   <i name="PARAM2">      1.00000000</i>
   <i name="PARAM3">      0.00000000</i>
  </separator>
  <separator name="model GW" >
   <i type="int" name="MODEL_GW">     0</i>
   <i name="MODEL_EPS0">     13.71041785</i>
   <i name="MODEL_ALPHA">      1.00000000</i>
  </separator>
  <separator name="linear response parameters" >
   <i type="logical" name="LEPSILON"> F  </i>
   <i type="logical" name="LRPA"> F  </i>
   <i type="logical" name="LNABLA"> F  </i>
   <i type="logical" name="LVEL"> F  </i>
   <i name="CSHIFT">      0.10000000</i>
   <i name="OMEGAMAX">     -1.00000000</i>
   <i name="DEG_THRESHOLD">      0.00200000</i>
   <i name="RTIME">     -0.10000000</i>
   <i name="WPLASMAI">      0.00000000</i>
   <v name="DFIELD">      0.00000000      0.00000000      0.00000000</v>
   <v name="WPLASMA">      0.00000000      0.00000000      0.00000000      0.00000000      0.00000000      0.00000000      0.00000000      0.00000000      0.00000000</v>
  </separator>
  <separator name="orbital magnetization" >
   <i type="logical" name="NUCIND"> F  </i>
   <v name="MAGPOS">      0.00000000      0.00000000      0.00000000</v>
   <i type="logical" name="LNICSALL"> T  </i>
   <i type="logical" name="ORBITALMAG"> F  </i>
   <i type="logical" name="LMAGBLOCH"> F  </i>
   <i type="logical" name="LCHIMAG"> F  </i>
   <i type="logical" name="LGAUGE"> T  </i>
   <i type="int" name="MAGATOM">     0</i>
   <v name="MAGDIPOL">      0.00000000      0.00000000      0.00000000</v>
   <v name="AVECCONST">      0.00000000      0.00000000      0.00000000</v>
  </separator>
  <separator name="response functions" >
   <i type="logical" name="LALL_IN_ONE"> F  </i>
   <i type="int" name="IALL_IN_ONE">    -1</i>
   <i type="int" name="NBANDS_WAVE">    -1</i>
   <i type="logical" name="LFINITE_TEMPERATURE"> F  </i>
   <i type="logical" name="LADDER"> F  </i>
   <i type="logical" name="LRPAFORCE"> F  </i>
   <i type="logical" name="LFXC"> F  </i>
   <i type="logical" name="LHARTREE"> T  </i>
   <i type="int" name="IBSE">     0</i>
   <v type="int" name="KPOINT">    -1     0     0     0</v>
   <i type="logical" name="LTCTC"> F  </i>
   <i type="logical" name="LTCTE"> F  </i>
   <i type="logical" name="LTETE"> F  </i>
   <i type="logical" name="LTRIPLET"> F  </i>
   <i type="logical" name="LFXCEPS"> F  </i>
   <i type="logical" name="LFXHEG"> F  </i>
   <i type="int" name="NATURALO">     2</i>
   <i type="logical" name="LHOLEGF"> F  </i>
   <i type="logical" name="L2ORDER"> F  </i>
   <i type="logical" name="LDMP1"> F  </i>
   <i type="logical" name="LMP2LT"> F  </i>
   <i type="logical" name="LSMP2LT"> F  </i>
   <i type="logical" name="LGWLF"> F  </i>
   <i name="ENCUTGW">     -1.60000002</i>
   <i name="ENCUTGWSOFT">     -1.60000002</i>
   <i name="ENCUTLF">     -1.00000000</i>
   <i type="logical" name="LESF_SPLINES"> F  </i>
   <i type="int" name="LMAXMP2">    -1</i>
   <i name="SCISSOR">      0.00000000</i>
   <i type="int" name="NOMEGA">     0</i>
   <i type="int" name="NOMEGAR">     0</i>
   <i type="int" name="NBANDSGW">    -1</i>
   <i type="int" name="NBANDSO">    -1</i>
   <i type="int" name="NBANDSV">    -1</i>
   <i type="int" name="NELMGW">     1</i>
   <i type="int" name="NELMHF">     1</i>
   <i type="int" name="DIM">     3</i>
   <i type="int" name="IESPILON">     4</i>
   <i type="int" name="ANTIRES">     0</i>
   <i name="OMEGAMAX">    -30.00000000</i>
   <i name="OMEGAMIN">    -30.00000000</i>
   <i name="OMEGATL">   -200.00000000</i>
   <i type="int" name="OMEGAGRID">     0</i>
   <i name="CSHIFT">     -0.10000000</i>
   <i type="logical" name="LSELFENERGY"> F  </i>
   <i type="logical" name="LSPECTRAL"> F  </i>
   <i type="logical" name="LSPECTRALGW"> F  </i>
   <i type="logical" name="LSINGLES"> F  </i>
   <i type="logical" name="LFERMIGW"> F  </i>
   <i type="logical" name="ODDONLYGW"> F  </i>
   <i type="logical" name="EVENONLYGW"> F  </i>
   <i type="int" name="NKREDLFX">     1</i>
   <i type="int" name="NKREDLFY">     1</i>
   <i type="int" name="NKREDLFZ">     1</i>
   <i type="int" name="MAXMEM">  2800</i>
   <i type="int" name="TELESCOPE">     0</i>
   <i type="int" name="NTAUPAR">    -1</i>
   <i type="int" name="NOMEGAPAR">    -1</i>
   <i name="DAMP_NEWTON">      0.80000001</i>
   <i name="LAMBDA">      1.00000000</i>
  </separator>
  <separator name="External order field" >
   <i name="OFIELD_KAPPA">      0.00000000</i>
   <v name="OFIELD_K">      0.00000000      0.00000000      0.00000000</v>
   <i name="OFIELD_Q6_NEAR">      0.00000000</i>
   <i name="OFIELD_Q6_FAR">      0.00000000</i>
   <i name="OFIELD_A">      0.00000000</i>
  </separator>
  <separator name="optional k-points parameters" >
   <i type="int" name="KPOINTS_OPT_MODE">     1</i>
   <i type="logical" name="LKPOINTS_OPT"> F  </i>
  </separator>
 </parameters>
 <atominfo>
  <atoms>       2 </atoms>
  <types>       1 </types>
  <array name="atoms" >
   <dimension dim="1">ion</dimension>
   <field type="string">element</field>
   <field type="int">atomtype</field>
   <set>
    <rc><c>Ge</c><c>   1</c></rc>
    <rc><c>Ge</c><c>   1</c></rc>
   </set>
  </array>
  <array name="atomtypes" >
   <dimension dim="1">type</dimension>
   <field type="int">atomspertype</field>
   <field type="string">element</field>
   <field>mass</field>
   <field>valence</field>
   <field type="string">pseudopotential</field>
   <set>
    <rc><c>   2</c><c>Ge</c><c>     72.61000000</c><c>      4.00000000</c><c>  PAW_PBE Ge 05Jan2001                  </c></rc>
   </set>
  </array>
 </atominfo>
 <structure name="initialpos" >
  <crystal>
   <varray name="basis" >
    <v>       0.00000000       2.83770000       2.83770000 </v>
    <v>       2.83770000       0.00000000       2.83770000 </v>
    <v>       2.83770000       2.83770000       0.00000000 </v>
   </varray>
   <i name="volume">     45.70139284 </i>
   <varray name="rec_basis" >
    <v>      -0.17619903       0.17619903       0.17619903 </v>
    <v>       0.17619903      -0.17619903       0.17619903 </v>
    <v>       0.17619903       0.17619903      -0.17619903 </v>
   </varray>
  </crystal>
  <varray name="positions" >
   <v>       0.75000000       0.75000000       0.75000000 </v>
   <v>       0.50000000       0.50000000       0.50000000 </v>
  </varray>
 </structure>
 <calculation>
  <scstep>
   <time name="dav">    0.02    0.09</time>
   <time name="total">    0.03    0.16</time>
   <energy>
    <i name="alphaZ">     16.72879570 </i>
    <i name="ewald">   -218.68061112 </i>
    <i name="hartreedc">    -12.78773265 </i>
    <i name="XCdc">    -15.05283543 </i>
    <i name="pawpsdc">    176.29039040 </i>
    <i name="pawaedc">   -147.31525009 </i>
    <i name="eentropy">     -0.00398736 </i>
    <i name="bandstr">    -11.58833878 </i>
    <i name="atom">    209.98099742 </i>
    <i name="e_fr_energy">     -2.42857191 </i>
    <i name="e_wo_entrp">     -2.42458455 </i>
    <i name="e_0_energy">     -2.42657823 </i>
   </energy>
  </scstep>
  <scstep>
   <time name="dav">    0.02    0.02</time>
   <time name="total">    0.02    0.02</time>
   <energy>
    <i name="e_fr_energy">     -8.76536427 </i>
    <i name="e_wo_entrp">     -8.76258267 </i>
    <i name="e_0_energy">     -8.76397347 </i>
   </energy>
  </scstep>
  <scstep>
   <time name="dav">    0.02    0.02</time>
   <time name="total">    0.02    0.02</time>
   <energy>
    <i name="e_fr_energy">     -8.78856898 </i>
    <i name="e_wo_entrp">     -8.78576631 </i>
    <i name="e_0_energy">     -8.78716765 </i>
   </energy>
  </scstep>
  <scstep>
   <time name="dav">    0.03    0.03</time>
   <time name="total">    0.03    0.03</time>
   <energy>
    <i name="e_fr_energy">     -8.78857893 </i>
    <i name="e_wo_entrp">     -8.78577627 </i>
    <i name="e_0_energy">     -8.78717760 </i>
   </energy>
  </scstep>
  <scstep>
   <time name="dav">    0.02    0.02</time>
   <time name="total">    0.02    0.04</time>
   <energy>
    <i name="e_fr_energy">     -8.78857893 </i>
    <i name="e_wo_entrp">     -8.78577627 </i>
    <i name="e_0_energy">     -8.78717760 </i>
   </energy>
  </scstep>
  <scstep>
   <time name="dav">    0.02    0.02</time>
   <time name="total">    0.03    0.03</time>
   <energy>
    <i name="e_fr_energy">     -8.71380605 </i>
    <i name="e_wo_entrp">     -8.71062784 </i>
    <i name="e_0_energy">     -8.71221694 </i>
   </energy>
  </scstep>
  <scstep>
   <time name="dav">    0.02    0.02</time>
   <time name="total">    0.03    0.03</time>
   <energy>
    <i name="e_fr_energy">     -8.68216484 </i>
    <i name="e_wo_entrp">     -8.67785902 </i>
    <i name="e_0_energy">     -8.68001193 </i>
   </energy>
  </scstep>
  <scstep>
   <time name="dav">    0.02    0.02</time>
   <time name="total">    0.02    0.02</time>
   <energy>
    <i name="e_fr_energy">     -8.68377439 </i>
    <i name="e_wo_entrp">     -8.67972761 </i>
    <i name="e_0_energy">     -8.68175100 </i>
   </energy>
  </scstep>
  <scstep>
   <time name="dav">    0.03    0.03</time>
   <time name="total">    0.03    0.03</time>
   <energy>
    <i name="e_fr_energy">     -8.68402049 </i>
    <i name="e_wo_entrp">     -8.68003729 </i>
    <i name="e_0_energy">     -8.68202889 </i>
   </energy>
  </scstep>
  <scstep>
   <time name="dav">    0.03    0.03</time>
   <time name="total">    0.03    0.03</time>
   <energy>
    <i name="alphaZ">     16.72879570 </i>
    <i name="ewald">   -218.68061112 </i>
    <i name="hartreedc">    -16.08322386 </i>
    <i name="XCdc">    -14.41151120 </i>
    <i name="pawpsdc">    490.38945594 </i>
    <i name="pawaedc">   -461.75838678 </i>
    <i name="eentropy">     -0.00397683 </i>
    <i name="bandstr">    -14.84556793 </i>
    <i name="atom">    209.98099742 </i>
    <i name="e_fr_energy">     -8.68402867 </i>
    <i name="e_wo_entrp">     -8.68005184 </i>
    <i name="e_0_energy">     -8.68204026 </i>
   </energy>
  </scstep>
  <structure>
   <crystal>
    <varray name="basis" >
     <v>       0.00000000       2.83770000       2.83770000 </v>
     <v>       2.83770000       0.00000000       2.83770000 </v>
     <v>       2.83770000       2.83770000       0.00000000 </v>
    </varray>
    <i name="volume">     45.70139284 </i>
    <varray name="rec_basis" >
     <v>      -0.17619903       0.17619903       0.17619903 </v>
     <v>       0.17619903      -0.17619903       0.17619903 </v>
     <v>       0.17619903       0.17619903      -0.17619903 </v>
    </varray>
   </crystal>
   <varray name="positions" >
    <v>       0.75000000       0.75000000       0.75000000 </v>
    <v>       0.50000000       0.50000000       0.50000000 </v>
   </varray>
  </structure>
  <varray name="forces" >
   <v>      -0.00000000      -0.00000000      -0.00000000 </v>
   <v>       0.00000000       0.00000000       0.00000000 </v>
  </varray>
  <varray name="stress" >
   <v>      43.57888912      -0.00000000      -0.00000000 </v>
   <v>       0.00000000      43.57888912       0.00000000 </v>
   <v>       0.00000000       0.00000000      43.57888912 </v>
  </varray>
  <energy>
   <i name="e_fr_energy">     -8.68402867 </i>
   <i name="e_wo_entrp">     -8.68005184 </i>
   <i name="e_0_energy">     -8.68204026 </i>
  </energy>
  <time name="totalsc">    0.32    0.49</time>
  <eigenvalues>
   <array>
    <dimension dim="1">band</dimension>
    <dimension dim="2">kpoint</dimension>
    <dimension dim="3">spin</dimension>
    <field>eigene</field>
    <field>occ</field>
    <set>
     <set comment="spin 1">
      <set comment="kpoint 1">
       <r>   -8.9745    1.0000 </r>
       <r>    3.7187    0.7824 </r>
       <r>    3.7425    0.6712 </r>
       <r>    3.7425    0.6709 </r>
       <r>    3.7425    0.6709 </r>
       <r>    6.2492    0.0000 </r>
       <r>    6.2492    0.0000 </r>
       <r>    6.2492    0.0000 </r>
       <r>   10.1388    0.0000 </r>
       <r>   12.9558    0.0000 </r>
       <r>   12.9558    0.0000 </r>
       <r>   14.4126    0.0000 </r>
       <r>   14.4126    0.0000 </r>
       <r>   14.4126    0.0000 </r>
       <r>   17.5134    0.0000 </r>
       <r>   27.8406    0.0000 </r>
      </set>
      <set comment="kpoint 2">
       <r>   -8.2407    1.0000 </r>
       <r>   -0.9715    1.0000 </r>
       <r>    2.8601    1.0000 </r>
       <r>    2.8601    1.0000 </r>
       <r>    4.3748    0.0000 </r>
       <r>    7.3225    0.0000 </r>
       <r>    7.3225    0.0000 </r>
       <r>    9.3233    0.0000 </r>
       <r>   11.7135    0.0000 </r>
       <r>   11.9079    0.0000 </r>
       <r>   11.9079    0.0000 </r>
       <r>   14.5475    0.0000 </r>
       <r>   18.4422    0.0000 </r>
       <r>   18.4422    0.0000 </r>
       <r>   21.3205    0.0000 </r>
       <r>   21.3945    0.0000 </r>
      </set>
      <set comment="kpoint 3">
       <r>   -6.9123    1.0000 </r>
       <r>   -3.8311    1.0000 </r>
       <r>    2.3403    1.0000 </r>
       <r>    2.3404    1.0000 </r>
       <r>    3.8893    0.0512 </r>
       <r>    7.4320    0.0000 </r>
       <r>    7.4320    0.0000 </r>
       <r>   10.8273    0.0000 </r>
       <r>   14.2241    0.0000 </r>
       <r>   14.7241    0.0000 </r>
       <r>   14.7952    0.0000 </r>
       <r>   14.7953    0.0000 </r>
       <r>   15.7867    0.0000 </r>
       <r>   15.7867    0.0000 </r>
       <r>   22.2902    0.0000 </r>
       <r>   23.4464    0.0000 </r>
      </set>
      <set comment="kpoint 4">
       <r>   -7.9747    1.0000 </r>
       <r>   -0.9738    1.0000 </r>
       <r>    1.7085    1.0000 </r>
       <r>    1.7086    1.0000 </r>
       <r>    4.7335    0.0000 </r>
       <r>    6.4455    0.0000 </r>
       <r>    9.5070    0.0000 </r>
       <r>    9.5070    0.0000 </r>
       <r>   10.7460    0.0000 </r>
       <r>   13.8349    0.0000 </r>
       <r>   13.9819    0.0000 </r>
       <r>   16.4825    0.0000 </r>
       <r>   16.4825    0.0000 </r>
       <r>   17.1656    0.0000 </r>
       <r>   20.9784    0.0000 </r>
       <r>   20.9784    0.0000 </r>
      </set>
      <set comment="kpoint 5">
       <r>   -6.5015    1.0000 </r>
       <r>   -3.6270    1.0000 </r>
       <r>    0.0282    1.0000 </r>
       <r>    1.3462    1.0000 </r>
       <r>    5.1280    0.0000 </r>
       <r>    7.9080    0.0000 </r>
       <r>    9.1309    0.0000 </r>
       <r>    9.8716    0.0000 </r>
       <r>   13.6263    0.0000 </r>
       <r>   14.8840    0.0000 </r>
       <r>   15.3930    0.0000 </r>
       <r>   15.9011    0.0000 </r>
       <r>   16.7578    0.0000 </r>
       <r>   20.2234    0.0000 </r>
       <r>   21.2769    0.0000 </r>
       <r>   22.1715    0.0000 </r>
      </set>
      <set comment="kpoint 6">
       <r>   -7.1101    1.0000 </r>
       <r>   -2.7754    1.0000 </r>
       <r>   -0.1101    1.0000 </r>
       <r>    2.2397    1.0000 </r>
       <r>    5.6645    0.0000 </r>
       <r>    8.4678    0.0000 </r>
       <r>    8.8125    0.0000 </r>
       <r>    8.9940    0.0000 </r>
       <r>   11.2737    0.0000 </r>
       <r>   13.0996    0.0000 </r>
       <r>   15.5305    0.0000 </r>
       <r>   16.2021    0.0000 </r>
       <r>   17.2520    0.0000 </r>
       <r>   19.8606    0.0000 </r>
       <r>   21.2496    0.0000 </r>
       <r>   22.0736    0.0000 </r>
      </set>
      <set comment="kpoint 7">
       <r>   -5.1234    1.0000 </r>
       <r>   -5.1234    1.0000 </r>
       <r>    0.6783    1.0000 </r>
       <r>    0.6783    1.0000 </r>
       <r>    4.4717    0.0000 </r>
       <r>    4.4717    0.0000 </r>
       <r>   13.1364    0.0000 </r>
       <r>   13.1364    0.0000 </r>
       <r>   15.2489    0.0000 </r>
       <r>   15.2489    0.0000 </r>
       <r>   16.1920    0.0000 </r>
       <r>   16.1920    0.0000 </r>
       <r>   17.0695    0.0000 </r>
       <r>   17.0695    0.0000 </r>
       <r>   22.5539    0.0000 </r>
       <r>   22.5539    0.0000 </r>
      </set>
      <set comment="kpoint 8">
       <r>   -5.0276    1.0000 </r>
       <r>   -5.0276    1.0000 </r>
       <r>   -0.1483    1.0000 </r>
       <r>   -0.1483    1.0000 </r>
       <r>    8.0050    0.0000 </r>
       <r>    8.0050    0.0000 </r>
       <r>    8.4154    0.0000 </r>
       <r>    8.4154    0.0000 </r>
       <r>   14.5877    0.0000 </r>
       <r>   14.5877    0.0000 </r>
       <r>   16.4800    0.0000 </r>
       <r>   16.4800    0.0000 </r>
       <r>   19.9014    0.0000 </r>
       <r>   19.9014    0.0000 </r>
       <r>   20.7191    0.0000 </r>
       <r>   20.7191    0.0000 </r>
      </set>
     </set>
    </set>
   </array>
  </eigenvalues>
  <separator name="orbital magnetization" >
   <v name="MAGDIPOLOUT">      0.00000000      0.00000000      0.00000000</v>
  </separator>
  <dos>
   <i name="efermi">      3.77382021 </i>
   <total>
    <array>
     <dimension dim="1">gridpoints</dimension>
     <dimension dim="2">spin</dimension>
     <field>energy</field>
     <field>total</field>
     <field>integrated</field>
     <set>
      <set comment="spin 1">
       <r>   -10.8153     0.0000     0.0000 </r>
       <r>   -10.6803     0.0000     0.0000 </r>
       <r>   -10.5453     0.0000     0.0000 </r>
       <r>   -10.4103     0.0000     0.0000 </r>
       <r>   -10.2753     0.0000     0.0000 </r>
       <r>   -10.1403     0.0000     0.0000 </r>
       <r>   -10.0053     0.0000     0.0000 </r>
       <r>    -9.8704     0.0000     0.0000 </r>
       <r>    -9.7354     0.0000     0.0000 </r>
       <r>    -9.6004     0.0000     0.0000 </r>
       <r>    -9.4654     0.0000     0.0000 </r>
       <r>    -9.3304     0.0000     0.0000 </r>
       <r>    -9.1954     0.0002     0.0000 </r>
       <r>    -9.0604     0.0258     0.0035 </r>
       <r>    -8.9254     0.1491     0.0236 </r>
       <r>    -8.7904     0.0554     0.0311 </r>
       <r>    -8.6555     0.0011     0.0312 </r>
       <r>    -8.5205     0.0001     0.0313 </r>
       <r>    -8.3855     0.0375     0.0363 </r>
       <r>    -8.2505     0.7862     0.1424 </r>
       <r>    -8.1155     0.9894     0.2760 </r>
       <r>    -7.9805     0.6873     0.3688 </r>
       <r>    -7.8455     0.6934     0.4624 </r>
       <r>    -7.7105     0.0470     0.4687 </r>
       <r>    -7.5755     0.0001     0.4687 </r>
       <r>    -7.4406     0.0000     0.4688 </r>
       <r>    -7.3056     0.0079     0.4698 </r>
       <r>    -7.1706     0.5370     0.5423 </r>
       <r>    -7.0356     1.8650     0.7941 </r>
       <r>    -6.9006     0.8879     0.9139 </r>
       <r>    -6.7656     0.3891     0.9664 </r>
       <r>    -6.6306     0.2053     0.9942 </r>
       <r>    -6.4956     2.7724     1.3684 </r>
       <r>    -6.3606     2.4664     1.7013 </r>
       <r>    -6.2257     0.1287     1.7187 </r>
       <r>    -6.0907     0.0003     1.7187 </r>
       <r>    -5.9557     0.0000     1.7187 </r>
       <r>    -5.8207     0.0000     1.7188 </r>
       <r>    -5.6857     0.0000     1.7188 </r>
       <r>    -5.5507     0.0000     1.7188 </r>
       <r>    -5.4157     0.0000     1.7188 </r>
       <r>    -5.2807     0.0186     1.7213 </r>
       <r>    -5.1457     0.6351     1.8070 </r>
       <r>    -5.0108     2.3083     2.1186 </r>
       <r>    -4.8758     1.1606     2.2752 </r>
       <r>    -4.7408     0.0444     2.2812 </r>
       <r>    -4.6058     0.0001     2.2812 </r>
       <r>    -4.4708     0.0000     2.2812 </r>
       <r>    -4.3358     0.0000     2.2813 </r>
       <r>    -4.2008     0.0000     2.2813 </r>
       <r>    -4.0658     0.0004     2.2813 </r>
       <r>    -3.9309     0.0730     2.2912 </r>
       <r>    -3.7959     0.6136     2.3740 </r>
       <r>    -3.6609     1.9874     2.6423 </r>
       <r>    -3.5259     3.3835     3.0990 </r>
       <r>    -3.3909     0.4218     3.1559 </r>
       <r>    -3.2559     0.0023     3.1562 </r>
       <r>    -3.1209     0.0000     3.1563 </r>
       <r>    -2.9859     0.0040     3.1568 </r>
       <r>    -2.8509     0.3926     3.2098 </r>
       <r>    -2.7160     1.8254     3.4562 </r>
       <r>    -2.5810     0.5478     3.5301 </r>
       <r>    -2.4460     0.0083     3.5312 </r>
       <r>    -2.3110     0.0000     3.5312 </r>
       <r>    -2.1760     0.0000     3.5312 </r>
       <r>    -2.0410     0.0000     3.5312 </r>
       <r>    -1.9060     0.0000     3.5312 </r>
       <r>    -1.7710     0.0000     3.5312 </r>
       <r>    -1.6360     0.0000     3.5312 </r>
       <r>    -1.5011     0.0000     3.5313 </r>
       <r>    -1.3661     0.0000     3.5313 </r>
       <r>    -1.2311     0.0004     3.5313 </r>
       <r>    -1.0961     0.1301     3.5489 </r>
       <r>    -0.9611     1.6975     3.7780 </r>
       <r>    -0.8261     1.3507     3.9603 </r>
       <r>    -0.6911     0.0622     3.9687 </r>
       <r>    -0.5561     0.0001     3.9688 </r>
       <r>    -0.4211     0.0002     3.9688 </r>
       <r>    -0.2862     0.0887     3.9807 </r>
       <r>    -0.1512     2.0662     4.2597 </r>
       <r>    -0.0162     4.5318     4.8714 </r>
       <r>     0.1188     3.8670     5.3934 </r>
       <r>     0.2538     0.5543     5.4682 </r>
       <r>     0.3888     0.0040     5.4688 </r>
       <r>     0.5238     0.0200     5.4715 </r>
       <r>     0.6588     0.5235     5.5421 </r>
       <r>     0.7938     0.7743     5.6466 </r>
       <r>     0.9287     0.0709     5.6562 </r>
       <r>     1.0637     0.0005     5.6563 </r>
       <r>     1.1987     0.1025     5.6701 </r>
       <r>     1.3337     2.2850     5.9786 </r>
       <r>     1.4687     2.9379     6.3752 </r>
       <r>     1.6037     0.4213     6.4320 </r>
       <r>     1.7387     1.6561     6.6556 </r>
       <r>     1.8737     0.9038     6.7776 </r>
       <r>     2.0087     0.0286     6.7814 </r>
       <r>     2.1436     0.2454     6.8146 </r>
       <r>     2.2786     2.0767     7.0949 </r>
       <r>     2.4136     2.0091     7.3661 </r>
       <r>     2.5486     0.2943     7.4058 </r>
       <r>     2.6836     0.0262     7.4094 </r>
       <r>     2.8186     1.0081     7.5455 </r>
       <r>     2.9536     2.3276     7.8597 </r>
       <r>     3.0886     0.3428     7.9059 </r>
       <r>     3.2236     0.0023     7.9062 </r>
       <r>     3.3585     0.0000     7.9063 </r>
       <r>     3.4935     0.0003     7.9063 </r>
       <r>     3.6285     0.0603     7.9144 </r>
       <r>     3.7635     0.5731     7.9918 </r>
       <r>     3.8985     0.7923     8.0987 </r>
       <r>     4.0335     0.4068     8.1537 </r>
       <r>     4.1685     0.0225     8.1567 </r>
       <r>     4.3035     0.2989     8.1970 </r>
       <r>     4.4385     1.6525     8.4201 </r>
       <r>     4.5734     1.1938     8.5813 </r>
       <r>     4.7084     0.5939     8.6614 </r>
       <r>     4.8434     0.8044     8.7700 </r>
       <r>     4.9784     0.1784     8.7941 </r>
       <r>     5.1134     2.2277     9.0948 </r>
       <r>     5.2484     2.9867     9.4980 </r>
       <r>     5.3834     0.2457     9.5311 </r>
       <r>     5.5184     0.0545     9.5385 </r>
       <r>     5.6534     1.1605     9.6952 </r>
       <r>     5.7883     1.4526     9.8912 </r>
       <r>     5.9233     0.1108     9.9062 </r>
       <r>     6.0583     0.0028     9.9066 </r>
       <r>     6.1933     0.1469     9.9264 </r>
       <r>     6.3283     0.5215     9.9968 </r>
       <r>     6.4633     0.8556    10.1123 </r>
       <r>     6.5983     0.5358    10.1846 </r>
       <r>     6.7333     0.0213    10.1875 </r>
       <r>     6.8683     0.0000    10.1875 </r>
       <r>     7.0032     0.0000    10.1875 </r>
       <r>     7.1382     0.0170    10.1898 </r>
       <r>     7.2732     0.9059    10.3121 </r>
       <r>     7.4082     3.0457    10.7232 </r>
       <r>     7.5432     1.4768    10.9226 </r>
       <r>     7.6782     0.1133    10.9379 </r>
       <r>     7.8132     0.5065    11.0062 </r>
       <r>     7.9482     4.0496    11.5529 </r>
       <r>     8.0832     3.3650    12.0071 </r>
       <r>     8.2181     0.4144    12.0631 </r>
       <r>     8.3531     0.6669    12.1531 </r>
       <r>     8.4881     3.3876    12.6104 </r>
       <r>     8.6231     1.4638    12.8080 </r>
       <r>     8.7581     0.6474    12.8954 </r>
       <r>     8.8931     2.0254    13.1688 </r>
       <r>     9.0281     2.4431    13.4986 </r>
       <r>     9.1631     4.2239    14.0688 </r>
       <r>     9.2980     2.4275    14.3964 </r>
       <r>     9.4330     1.5287    14.6028 </r>
       <r>     9.5680     1.9397    14.8646 </r>
       <r>     9.7030     0.5797    14.9429 </r>
       <r>     9.8380     1.7237    15.1756 </r>
       <r>     9.9730     3.3737    15.6310 </r>
       <r>    10.1080     0.4933    15.6976 </r>
       <r>    10.2430     0.1408    15.7166 </r>
       <r>    10.3780     0.0162    15.7187 </r>
       <r>    10.5129     0.0008    15.7188 </r>
       <r>    10.6479     0.1194    15.7350 </r>
       <r>    10.7829     1.0966    15.8830 </r>
       <r>    10.9179     0.9952    16.0173 </r>
       <r>    11.0529     0.1049    16.0315 </r>
       <r>    11.1879     0.3104    16.0734 </r>
       <r>    11.3229     1.7893    16.3149 </r>
       <r>    11.4579     0.6640    16.4046 </r>
       <r>    11.5929     0.0941    16.4173 </r>
       <r>    11.7278     1.0137    16.5541 </r>
       <r>    11.8628     1.6944    16.7828 </r>
       <r>    11.9978     2.3891    17.1053 </r>
       <r>    12.1328     0.3744    17.1559 </r>
       <r>    12.2678     0.0027    17.1562 </r>
       <r>    12.4028     0.0000    17.1562 </r>
       <r>    12.5378     0.0000    17.1563 </r>
       <r>    12.6728     0.0000    17.1563 </r>
       <r>    12.8078     0.0084    17.1574 </r>
       <r>    12.9427     0.2304    17.1885 </r>
       <r>    13.0777     1.5391    17.3963 </r>
       <r>    13.2127     2.5051    17.7344 </r>
       <r>    13.3477     0.3446    17.7809 </r>
       <r>    13.4827     0.1199    17.7971 </r>
       <r>    13.6177     2.3936    18.1202 </r>
       <r>    13.7527     3.0107    18.5266 </r>
       <r>    13.8877     1.2330    18.6931 </r>
       <r>    14.0227     1.1836    18.8529 </r>
       <r>    14.1576     0.5473    18.9267 </r>
       <r>    14.2926     0.6517    19.0147 </r>
       <r>    14.4276     0.6425    19.1014 </r>
       <r>    14.5626     2.2610    19.4066 </r>
       <r>    14.6976     2.8517    19.7916 </r>
       <r>    14.8326     3.1565    20.2177 </r>
       <r>    14.9676     4.1969    20.7842 </r>
       <r>    15.1026     0.6938    20.8779 </r>
       <r>    15.2376     0.6622    20.9673 </r>
       <r>    15.3725     2.8299    21.3493 </r>
       <r>    15.5075     4.1747    21.9128 </r>
       <r>    15.6425     1.9159    22.1714 </r>
       <r>    15.7775     1.1720    22.3296 </r>
       <r>    15.9125     3.8627    22.8511 </r>
       <r>    16.0475     2.4538    23.1823 </r>
       <r>    16.1825     1.7441    23.4177 </r>
       <r>    16.3175     2.3231    23.7313 </r>
       <r>    16.4525     2.0370    24.0063 </r>
       <r>    16.5874     3.3317    24.4560 </r>
       <r>    16.7224     2.0391    24.7313 </r>
       <r>    16.8574     3.4037    25.1907 </r>
       <r>    16.9924     0.6380    25.2769 </r>
       <r>    17.1274     1.4208    25.4687 </r>
       <r>    17.2624     2.5868    25.8179 </r>
       <r>    17.3974     1.3051    25.9940 </r>
       <r>    17.5324     0.1843    26.0189 </r>
       <r>    17.6674     0.0880    26.0308 </r>
       <r>    17.8023     0.0034    26.0312 </r>
       <r>    17.9373     0.0000    26.0312 </r>
       <r>    18.0723     0.0000    26.0313 </r>
       <r>    18.2073     0.0017    26.0315 </r>
       <r>    18.3423     0.2905    26.0707 </r>
       <r>    18.4773     2.2643    26.3763 </r>
       <r>    18.6123     1.1177    26.5272 </r>
       <r>    18.7473     0.0299    26.5312 </r>
       <r>    18.8823     0.0000    26.5312 </r>
       <r>    19.0172     0.0000    26.5312 </r>
       <r>    19.1522     0.0000    26.5312 </r>
       <r>    19.2872     0.0000    26.5312 </r>
       <r>    19.4222     0.0000    26.5313 </r>
       <r>    19.5572     0.0000    26.5313 </r>
       <r>    19.6922     0.0282    26.5351 </r>
       <r>    19.8272     1.2640    26.7057 </r>
       <r>    19.9622     3.5129    27.1799 </r>
       <r>    20.0972     0.9482    27.3079 </r>
       <r>    20.2321     2.8546    27.6932 </r>
       <r>    20.3671     2.3873    28.0155 </r>
       <r>    20.5021     0.1196    28.0316 </r>
       <r>    20.6371     0.3394    28.0774 </r>
       <r>    20.7721     1.8110    28.3219 </r>
       <r>    20.9071     1.0491    28.4635 </r>
       <r>    21.0421     1.8501    28.7133 </r>
       <r>    21.1771     1.4011    28.9024 </r>
       <r>    21.3120     6.2573    29.7471 </r>
       <r>    21.4470     4.3394    30.3328 </r>
       <r>    21.5820     0.5362    30.4052 </r>
       <r>    21.7170     0.0077    30.4062 </r>
       <r>    21.8520     0.0024    30.4066 </r>
       <r>    21.9870     0.3290    30.4510 </r>
       <r>    22.1220     3.1129    30.8712 </r>
       <r>    22.2570     4.5428    31.4844 </r>
       <r>    22.3920     1.2137    31.6483 </r>
       <r>    22.5269     0.5470    31.7221 </r>
       <r>    22.6619     0.8133    31.8319 </r>
       <r>    22.7969     0.0875    31.8437 </r>
       <r>    22.9319     0.0004    31.8437 </r>
       <r>    23.0669     0.0000    31.8438 </r>
       <r>    23.2019     0.0003    31.8438 </r>
       <r>    23.3369     0.0560    31.8513 </r>
       <r>    23.4719     0.5370    31.9238 </r>
       <r>    23.6069     0.3220    31.9673 </r>
       <r>    23.7418     0.0108    31.9687 </r>
       <r>    23.8768     0.0000    31.9687 </r>
       <r>    24.0118     0.0000    31.9688 </r>
       <r>    24.1468     0.0000    31.9688 </r>
       <r>    24.2818     0.0000    31.9688 </r>
       <r>    24.4168     0.0000    31.9688 </r>
       <r>    24.5518     0.0000    31.9688 </r>
       <r>    24.6868     0.0000    31.9688 </r>
       <r>    24.8218     0.0000    31.9688 </r>
       <r>    24.9567     0.0000    31.9688 </r>
       <r>    25.0917     0.0000    31.9688 </r>
       <r>    25.2267     0.0000    31.9688 </r>
       <r>    25.3617     0.0000    31.9688 </r>
       <r>    25.4967     0.0000    31.9688 </r>
       <r>    25.6317     0.0000    31.9688 </r>
       <r>    25.7667     0.0000    31.9688 </r>
       <r>    25.9017     0.0000    31.9688 </r>
       <r>    26.0367     0.0000    31.9688 </r>
       <r>    26.1716     0.0000    31.9688 </r>
       <r>    26.3066     0.0000    31.9688 </r>
       <r>    26.4416     0.0000    31.9688 </r>
       <r>    26.5766     0.0000    31.9688 </r>
       <r>    26.7116     0.0000    31.9688 </r>
       <r>    26.8466     0.0000    31.9688 </r>
       <r>    26.9816     0.0000    31.9688 </r>
       <r>    27.1166     0.0000    31.9688 </r>
       <r>    27.2516     0.0000    31.9688 </r>
       <r>    27.3865     0.0000    31.9688 </r>
       <r>    27.5215     0.0000    31.9688 </r>
       <r>    27.6565     0.0011    31.9689 </r>
       <r>    27.7915     0.0554    31.9764 </r>
       <r>    27.9265     0.1491    31.9965 </r>
       <r>    28.0615     0.0258    32.0000 </r>
       <r>    28.1965     0.0002    32.0000 </r>
       <r>    28.3315     0.0000    32.0000 </r>
       <r>    28.4665     0.0000    32.0000 </r>
       <r>    28.6014     0.0000    32.0000 </r>
       <r>    28.7364     0.0000    32.0000 </r>
       <r>    28.8714     0.0000    32.0000 </r>
       <r>    29.0064     0.0000    32.0000 </r>
       <r>    29.1414     0.0000    32.0000 </r>
       <r>    29.2764     0.0000    32.0000 </r>
       <r>    29.4114     0.0000    32.0000 </r>
       <r>    29.5464     0.0000    32.0000 </r>
       <r>    29.6814     0.0000    32.0000 </r>
      </set>
     </set>
    </array>
   </total>
  </dos>
 </calculation>
 <structure name="finalpos" >
  <crystal>
   <varray name="basis" >
    <v>       0.00000000       2.83770000       2.83770000 </v>
    <v>       2.83770000       0.00000000       2.83770000 </v>
    <v>       2.83770000       2.83770000       0.00000000 </v>
   </varray>
   <i name="volume">     45.70139284 </i>
   <varray name="rec_basis" >
    <v>      -0.17619903       0.17619903       0.17619903 </v>
    <v>       0.17619903      -0.17619903       0.17619903 </v>
    <v>       0.17619903       0.17619903      -0.17619903 </v>
   </varray>
  </crystal>
  <varray name="positions" >
   <v>       0.75000000       0.75000000       0.75000000 </v>
   <v>       0.50000000       0.50000000       0.50000000 </v>
  </varray>
 </structure>
</modeling>
