ITEM: TIMESTEP
160089
ITEM: NUMBER OF ATOMS
512
ITEM: BOX BOUNDS pp pp pp
5.3481475819917002e-01 2.2219877033162827e+01
-1.3347511810076416e+00 2.4089442972387094e+01
-1.4535177456567361e+00 2.4208209537018654e+01
ITEM: ATOMS id type xs ys zs
1 1 0.110072 0.637802 0.901696
2 1 0.120771 0.654252 0.413939
3 1 0.912575 0.743278 0.209393
4 1 0.152915 0.0381117 0.790511
5 1 0.738773 0.772342 0.170003
6 1 0.0909237 0.204696 0.541137
7 1 0.0826289 0.277759 0.418089
8 1 0.218976 0.992712 0.481921
9 1 0.776489 0.688023 0.399334
10 1 0.658172 0.137584 0.368524
11 1 0.538029 0.294783 0.961783
12 1 0.559067 0.578003 0.935877
13 1 0.897382 0.410241 0.353277
14 1 0.829832 0.0351572 0.583416
15 1 0.856538 0.436327 0.63446
16 1 0.794518 0.120213 0.71059
17 1 0.0288643 0.485226 0.921405
18 1 0.193509 0.532033 0.507863
19 1 0.342317 0.508428 0.563545
20 1 0.145401 0.799475 0.971735
21 1 0.388979 0.394185 0.337617
22 1 0.981625 0.984311 0.89201
23 1 0.938436 0.420265 0.805608
24 1 0.72998 0.915673 0.537699
25 1 0.374651 0.345222 0.88282
26 1 0.888428 0.313924 0.905423
27 1 0.618276 0.235599 0.485781
28 1 0.0227194 0.957031 0.745335
29 1 0.881794 0.288493 0.619289
30 1 0.85199 0.996741 0.308649
31 1 0.730622 0.522593 0.804368
32 1 0.927647 0.290535 0.325011
33 1 0.878324 0.448374 0.138558
34 1 0.727627 0.013063 0.963321
35 1 0.410168 0.172488 0.951685
36 1 0.232321 0.699375 0.269347
37 1 0.714549 0.269688 0.682336
38 1 0.2056 0.606002 0.150978
39 1 0.229066 0.894129 0.206416
40 1 0.191257 0.0423668 0.318923
41 1 0.728873 0.342042 0.549005
42 1 0.974414 0.279981 0.739093
43 1 0.00382689 0.393182 0.479633
44 1 0.586436 0.874001 0.633562
45 1 0.36458 0.100383 0.133191
46 1 0.707702 0.83278 0.981812
47 1 0.875424 0.565122 0.997656
48 1 0.797983 0.558114 0.689038
49 1 0.257842 0.90375 0.361659
50 1 0.333869 0.566646 0.89477
51 1 0.90466 0.907191 0.185306
52 1 0.333081 0.617316 0.678582
53 1 0.569523 0.797019 0.211989
54 1 0.100582 0.802958 0.373789
55 1 0.478585 0.660646 0.429034
56 1 0.203535 0.465734 0.649178
57 1 0.667817 0.00718593 0.668374
58 1 0.577581 0.557617 0.742972
59 1 0.540366 0.0193904 0.335242
60 1 0.947549 0.795643 0.463007
61 1 0.175714 0.643202 0.609051
62 1 0.436679 0.881275 0.314622
63 1 0.00604841 0.785854 0.652043
64 1 0.997138 0.545029 0.74122
65 1 0.270567 0.787165 0.87759
66 1 0.187736 0.0785178 0.593825
67 1 0.519467 0.136575 0.736945
68 1 0.222985 0.435957 0.88076
69 1 0.983642 0.136962 0.339436
70 1 0.39811 0.802708 0.174433
71 1 0.486701 0.0194805 0.609724
72 1 0.295984 0.104167 0.843264
73 1 0.0488115 0.355073 0.610616
74 1 0.556015 0.955684 0.490611
75 1 0.927443 0.210923 0.00439269
76 1 0.981823 0.0781845 0.493308
77 1 0.685695 0.109795 0.83003
78 1 0.385375 0.945381 0.438774
79 1 0.254711 0.439705 0.412035
80 1 0.379985 0.335269 0.668554
81 1 0.236906 0.65391 0.79334
82 1 0.838037 0.973598 0.726775
83 1 0.50913 0.0517347 0.869897
84 1 0.242713 0.90397 0.777769
85 1 0.0847289 0.726082 0.534409
86 1 0.0620771 0.299028 0.0656503
87 1 0.26488 0.0794294 0.989222
88 1 0.0802415 0.72616 0.193626
89 1 0.339491 0.456973 0.751302
90 1 0.549 0.634774 0.216638
91 1 0.55031 0.785054 0.93209
92 1 0.336185 0.106942 0.403527
93 1 0.833236 0.705674 0.72348
94 1 0.37829 0.452063 0.00220226
95 1 0.421194 0.67444 0.843908
96 1 0.0776685 0.872275 0.227309
97 1 0.087614 0.178865 0.824598
98 1 0.0912209 0.700184 0.735647
99 1 0.0970614 0.324134 0.916401
100 1 0.00610226 0.54606 0.0870932
101 1 0.170442 0.369128 0.509197
102 1 0.485622 0.715157 0.70081
103 1 0.0982727 0.407448 0.741129
104 1 0.21837 0.527054 0.277384
105 1 0.196485 0.459563 0.131932
106 1 0.284899 0.156026 0.69794
107 1 0.792831 0.60585 0.539918
108 1 0.162838 0.513877 0.999238
109 1 0.759955 0.322344 0.251129
110 1 0.745113 0.251171 0.977599
111 1 0.618464 0.151873 0.622388
112 1 0.0321689 0.680178 0.014428
113 1 0.330781 0.677973 0.988238
114 1 0.449911 0.272837 0.399439
115 1 0.0956967 0.156082 0.681552
116 1 0.020982 0.813825 0.0722091
117 1 0.370614 0.833541 0.974514
118 1 0.61124 0.141278 0.957711
119 1 0.733015 0.544538 0.371722
120 1 0.22496 0.315361 0.791924
121 1 0.0348376 0.578645 0.23483
122 1 0.740155 0.843225 0.69501
123 1 0.0335705 0.534476 0.570257
124 1 0.288506 0.613122 0.388142
125 1 0.196098 0.0489382 0.15041
126 1 0.404012 0.735185 0.327951
127 1 0.828765 0.100991 0.424286
128 1 0.0784262 0.0939259 0.940219
129 1 0.12833 0.910802 0.658985
130 1 0.961973 0.0857235 0.78015
131 1 0.221249 0.283829 0.634656
132 1 0.911749 0.0152084 0.0404088
133 1 0.432385 0.000180001 0.0101267
134 1 0.715768 0.976021 0.394831
135 1 0.36054 0.264413 0.0556659
136 1 0.236429 0.775516 0.0950367
137 1 0.911243 0.895534 0.602336
138 1 0.469477 0.208015 0.558623
139 1 0.1012 0.838696 0.819471
140 1 0.598548 0.295534 0.301417
141 1 0.415861 0.226506 0.79244
142 1 0.444496 0.891411 0.761591
143 1 0.577115 0.932176 0.221089
144 1 0.599889 0.815035 0.785553
145 1 0.245428 0.228309 0.927785
146 1 0.551783 0.241238 0.0949471
147 1 0.616754 0.426667 0.691892
148 1 0.0339024 0.435885 0.200572
149 1 0.196431 0.19446 0.0688358
150 1 0.577613 0.408065 0.471304
151 1 0.496578 0.153571 0.302102
152 1 0.702921 0.456986 0.19947
153 1 0.515391 0.700588 0.0597859
154 1 0.783727 0.829836 0.425791
155 1 0.462365 0.45461 0.626264
156 1 0.7235 0.953621 0.118926
157 1 0.825754 0.217924 0.806674
158 1 0.527457 0.490145 0.177365
159 1 0.577262 0.944968 0.946256
160 1 0.77136 0.378595 0.759425
161 1 0.254177 0.279986 0.38582
162 1 0.940536 0.16893 0.196748
163 1 0.787665 0.264309 0.41019
164 1 0.662674 0.6937 0.649237
165 1 0.655036 0.67216 0.807219
166 1 0.414108 0.947583 0.174861
167 1 0.566096 0.873979 0.0760376
168 1 0.332051 0.655796 0.529199
169 1 0.0697987 0.508697 0.392299
170 1 0.156285 0.13116 0.420471
171 1 0.942118 0.155716 0.63591
172 1 0.565741 0.320476 0.603182
173 1 0.686137 0.695371 0.0121092
174 1 0.809203 0.165271 0.277597
175 1 0.941741 0.653897 0.622853
176 1 0.603454 0.729964 0.325927
177 1 0.628517 0.258635 0.836129
178 1 0.632116 0.655841 0.479418
179 1 0.0325612 0.130683 0.0718944
180 1 0.785146 0.183875 0.558572
181 1 0.438952 0.807491 0.470897
182 1 0.920942 0.847015 0.325004
183 1 0.228926 0.790279 0.591222
184 1 0.663983 0.0696922 0.511548
185 1 0.871376 0.852092 0.0295739
186 1 0.380431 0.0196321 0.292024
187 1 0.958339 0.631964 0.471279
188 1 0.569628 0.573185 0.354506
189 1 0.283963 0.779783 0.729517
190 1 0.381554 0.66282 0.190521
191 1 0.412011 0.854715 0.612056
192 1 0.89631 0.559859 0.370674
193 1 0.61114 0.868719 0.374114
194 1 0.67225 0.503896 0.58743
195 1 0.699014 0.045286 0.241498
196 1 0.356784 0.973652 0.878776
197 1 0.745765 0.13433 0.0746948
198 1 0.513711 0.364868 0.767296
199 1 0.287792 0.198477 0.51676
200 1 0.0384609 0.963341 0.362968
201 1 0.226798 0.302692 0.192043
202 1 0.273071 0.915354 0.0516082
203 1 0.746574 0.601003 0.91033
204 1 0.312329 0.180559 0.258217
205 1 0.948675 0.387335 0.0153021
206 1 0.764562 0.775387 0.858976
207 1 0.547519 0.0697702 0.0926574
208 1 0.643159 0.43729 0.916859
209 1 0.252562 0.364362 0.00990388
210 1 0.724368 0.399773 0.0624447
211 1 0.879253 0.62408 0.822411
212 1 0.696904 0.544627 0.0687605
213 1 0.136769 0.185987 0.271194
214 1 0.839063 0.0620277 0.16206
215 1 0.15852 0.527777 0.798351
216 1 0.912463 0.823272 0.779039
217 1 0.936864 0.234228 0.486609
218 1 0.291371 0.952486 0.611366
219 1 0.810778 0.444961 0.929698
220 1 7.12515e-05 0.0198981 0.630927
221 1 0.695956 0.944709 0.811904
222 1 0.550336 0.427252 0.051787
223 1 0.888631 0.959246 0.466941
224 1 0.467753 0.47657 0.859581
225 1 0.847591 0.696122 0.0665708
226 1 0.529086 0.590922 0.580052
227 1 0.996783 0.298653 0.199851
228 1 0.982582 0.703837 0.333205
229 1 0.74705 0.878209 0.274718
230 1 0.735946 0.397576 0.38129
231 1 0.0237444 0.0288106 0.221719
232 1 0.355483 0.0660758 0.533819
233 1 0.863661 0.286098 0.117842
234 1 0.38864 0.355141 0.518421
235 1 0.625934 0.797163 0.515751
236 1 0.640359 0.181399 0.20198
237 1 0.879186 0.595884 0.178064
238 1 0.877532 0.487609 0.499656
239 1 0.359111 0.421974 0.154282
240 1 0.445893 0.514387 0.449769
241 1 0.39375 0.0236483 0.718687
242 1 0.390466 0.535121 0.26818
243 1 0.133268 0.376751 0.300165
244 1 0.0923511 0.885212 0.499988
245 1 0.556611 0.441542 0.319085
246 1 0.96146 0.774956 0.911275
247 1 0.429757 0.279572 0.224128
248 1 0.854595 0.105802 0.915973
249 1 0.802787 0.752259 0.565148
250 1 0.171194 0.952799 0.941968
251 1 0.868084 0.913524 0.877652
252 1 0.511222 0.106906 0.450022
253 1 0.389041 0.574366 0.0954829
254 1 0.729337 0.623961 0.230627
255 1 0.270957 0.77444 0.443663
256 1 0.0641793 0.953473 0.0758977
257 2 0.156473 0.36443 0.641668
258 2 0.0717055 0.732796 0.928998
259 2 0.717161 0.477448 0.986214
260 2 0.398075 0.156143 0.487253
261 2 0.186534 0.860693 0.889471
262 2 0.558003 0.203508 0.395134
263 2 0.628588 0.00368536 0.159019
264 2 0.72897 0.16195 0.472245
265 2 0.205151 0.038904 0.902276
266 2 0.528276 0.814301 0.302911
267 2 0.282714 0.447928 0.314703
268 2 0.998661 0.178703 0.752099
269 2 0.55305 0.144977 0.839892
270 2 0.547402 0.741873 0.458788
271 2 0.87572 0.801427 0.681928
272 2 0.899925 0.0904471 0.254983
273 2 0.816232 0.214069 0.0555939
274 2 0.498332 0.930639 0.39324
275 2 0.641127 0.332314 0.741452
276 2 0.524712 0.0551989 0.986195
277 2 0.662163 0.390346 0.288195
278 2 0.590428 0.62267 0.0303454
279 2 0.181855 0.284161 0.294766
280 2 0.0891892 0.605483 0.507762
281 2 0.0955367 0.822859 0.581066
282 2 0.944143 0.421476 0.567078
283 2 0.285558 0.0253853 0.0758103
284 2 0.97426 0.37544 0.263845
285 2 0.998251 0.221521 0.119876
286 2 0.658276 0.884927 0.459599
287 2 0.872745 0.320224 0.800148
288 2 0.964119 0.330804 0.409676
289 2 0.0248252 0.796042 0.307179
290 2 0.279157 0.512644 0.18537
291 2 0.916934 0.482794 0.0440379
292 2 0.536025 0.467474 0.780343
293 2 0.938064 0.735973 0.546291
294 2 0.29574 0.677099 0.88453
295 2 0.0631246 0.108192 0.581837
296 2 0.15545 0.377389 0.402649
297 2 0.193941 0.183018 0.622164
298 2 0.0615012 0.687915 0.640698
299 2 0.119523 0.726298 0.069859
300 2 0.790277 0.512803 0.577567
301 2 0.506033 0.299129 0.518127
302 2 0.356208 0.227348 0.881821
303 2 0.192265 0.241752 0.46295
304 2 0.808454 0.672023 0.625693
305 2 0.852716 0.119189 0.809966
306 2 0.473106 0.026076 0.507474
307 2 0.023534 0.788754 0.756059
308 2 0.885504 0.754481 0.380905
309 2 0.713574 0.197411 0.770699
310 2 0.606719 0.0472604 0.420191
311 2 0.885439 0.136743 0.535069
312 2 0.333974 0.0706913 0.632715
313 2 0.699474 0.705761 0.903863
314 2 0.415228 0.603858 0.607279
315 2 0.448328 0.739118 0.984408
316 2 0.818635 0.907007 0.369825
317 2 0.53723 0.319277 0.86325
318 2 0.0428245 0.484609 0.8232
319 2 0.41142 0.942837 0.667461
320 2 0.968866 0.357653 0.116117
321 2 0.346163 0.848337 0.814899
322 2 0.538016 0.731242 0.84173
323 2 0.0002895 0.915939 0.657614
324 2 0.250495 0.146827 0.347914
325 2 0.669632 0.630294 0.384943
326 2 0.796361 0.375517 0.165304
327 2 0.0834187 0.040581 0.702068
328 2 0.339369 0.431701 0.649384
329 2 0.806256 0.475195 0.409269
330 2 0.338627 0.566991 0.466904
331 2 0.248372 0.101697 0.497887
332 2 0.692758 0.790274 0.357718
333 2 0.257388 0.860784 0.66268
334 2 0.0465395 0.733847 0.438951
335 2 0.180835 0.557854 0.392036
336 2 0.794157 0.0218823 0.0704854
337 2 0.814685 0.844916 0.939056
338 2 0.370121 0.348413 0.00575798
339 2 0.112505 0.962562 0.174576
340 2 0.0262996 0.213946 0.282376
341 2 0.29711 0.556675 0.765979
342 2 0.966411 0.0503854 0.130144
343 2 0.929922 0.97533 0.80148
344 2 0.515028 0.65894 0.324111
345 2 0.135669 0.369001 0.192606
346 2 0.753908 0.067011 0.341255
347 2 0.263541 0.452167 0.0524194
348 2 0.827897 0.279081 0.527549
349 2 0.725894 0.101454 0.615156
350 2 0.0504328 0.0668752 0.843469
351 2 0.109481 0.509138 0.687379
352 2 0.347346 0.451652 0.900094
353 2 0.848018 0.835522 0.235202
354 2 0.823288 0.335204 0.337829
355 2 0.778378 0.00270793 0.478374
356 2 0.197964 0.547078 0.892751
357 2 0.655953 0.619364 0.571675
358 2 0.328413 0.27955 0.576537
359 2 0.956595 0.517131 0.183235
360 2 0.147353 0.903116 0.308809
361 2 0.434119 0.0876306 0.352198
362 2 0.511148 0.354246 0.359604
363 2 0.690889 0.319761 0.446103
364 2 0.772107 0.624626 0.016038
365 2 0.800099 0.883163 0.796157
366 2 0.135011 0.918085 0.754527
367 2 0.547259 0.260326 0.199106
368 2 0.00546924 0.613985 0.374452
369 2 0.0505628 0.984145 0.972579
370 2 0.217108 0.719179 0.372968
371 2 0.94599 0.908441 0.0759987
372 2 0.373764 0.706068 0.43294
373 2 0.0402223 0.173797 0.442299
374 2 0.918681 0.626673 0.718505
375 2 0.476933 0.974042 0.258988
376 2 0.637132 0.7142 0.226801
377 2 0.386743 0.123497 0.765132
378 2 0.508665 0.862685 0.549187
379 2 0.570374 0.144813 0.531677
380 2 0.221191 0.706675 0.53478
381 2 0.326112 0.937445 0.968547
382 2 0.802622 0.579731 0.293883
383 2 0.120988 0.540918 0.108222
384 2 0.275028 0.771866 0.994009
385 2 0.768968 0.616151 0.787939
386 2 0.684817 0.810789 0.602729
387 2 0.297238 0.181201 0.0192525
388 2 0.33148 0.319087 0.155078
389 2 0.143586 0.103296 0.0620248
390 2 0.484782 0.721607 0.157724
391 2 0.653154 0.93031 0.0220439
392 2 0.213453 0.202991 0.179066
393 2 0.18029 0.29212 0.0426479
394 2 0.326881 0.916557 0.270751
395 2 0.0874735 0.0772624 0.288548
396 2 0.693235 0.2284 0.282281
397 2 0.604941 0.10116 0.278411
398 2 0.938951 0.759998 0.0205572
399 2 0.952948 0.481803 0.417127
400 2 0.733166 0.113645 0.949053
401 2 0.851541 0.555707 0.8988
402 2 0.839083 0.223444 0.909684
403 2 0.644226 0.23356 0.928214
404 2 0.863448 0.00187248 0.939338
405 2 0.325827 0.962055 0.519119
406 2 0.515759 0.210745 0.668935
407 2 0.46371 0.508976 0.349169
408 2 0.342621 0.340284 0.42156
409 2 0.450645 0.57807 0.864417
410 2 0.365661 0.84734 0.399547
411 2 0.22811 0.695571 0.683629
412 2 0.494415 0.374018 0.667046
413 2 0.297278 0.265164 0.720285
414 2 0.363196 0.0696218 0.919627
415 2 0.26566 0.441858 0.515744
416 2 0.534301 0.462094 0.949758
417 2 0.862274 0.191782 0.382826
418 2 0.297368 0.000346631 0.791086
419 2 0.640811 0.481448 0.398035
420 2 0.632973 0.466288 0.109426
421 2 0.218919 0.4205 0.774686
422 2 0.0987489 0.495789 0.266625
423 2 0.677145 0.858463 0.179238
424 2 0.470791 0.236217 0.0230161
425 2 0.314985 0.609034 0.281784
426 2 0.927491 0.572443 0.563255
427 2 0.363967 0.577077 0.00150169
428 2 0.493926 0.869443 0.161521
429 2 0.239137 0.328946 0.895483
430 2 0.447585 0.461294 0.0861911
431 2 0.48328 0.902551 0.997507
432 2 0.385021 0.700261 0.73888
433 2 0.949323 0.63195 0.0796747
434 2 0.895344 0.0678568 0.670246
435 2 0.987801 0.886992 0.440955
436 2 0.306707 0.865229 0.127909
437 2 0.92822 0.0423129 0.404583
438 2 0.632105 0.971922 0.579902
439 2 0.655195 0.938813 0.305356
440 2 0.524853 0.589041 0.477044
441 2 0.851459 0.866496 0.511225
442 2 0.87491 0.7284 0.837848
443 2 0.150316 0.874605 0.0456611
444 2 0.446556 0.423187 0.233919
445 2 0.613568 0.332108 0.0377803
446 2 0.295541 0.671507 0.113405
447 2 0.462935 0.972138 0.820108
448 2 0.731274 0.0259848 0.753115
449 2 0.12771 0.0321641 0.416637
450 2 0.559482 0.0682007 0.671303
451 2 0.807497 0.944505 0.639248
452 2 0.960732 0.118645 0.995546
453 2 0.996693 0.243994 0.617213
454 2 0.999597 0.805203 0.171504
455 2 0.393908 0.240421 0.316665
456 2 0.634791 0.859375 0.881719
457 2 0.73839 0.422105 0.85188
458 2 0.413705 0.170421 0.199579
459 2 0.977871 0.662369 0.236271
460 2 0.180214 0.863825 0.44531
461 2 0.82095 0.346544 0.00748895
462 2 0.45554 0.57616 0.181649
463 2 0.804996 0.978075 0.211883
464 2 0.118928 0.199428 0.919247
465 2 0.64236 0.552641 0.869333
466 2 0.942085 0.408687 0.910194
467 2 0.096321 0.458118 0.517026
468 2 0.621082 0.154551 0.0811376
469 2 0.879935 0.493031 0.750362
470 2 0.293094 0.00328569 0.38465
471 2 0.987619 0.296907 0.984494
472 2 0.353565 0.804772 0.547094
473 2 0.638722 0.0119272 0.887507
474 2 0.56667 0.650667 0.704062
475 2 0.398148 0.363143 0.786896
476 2 0.603611 0.539892 0.249853
477 2 0.192669 0.760606 0.797718
478 2 0.173701 0.972262 0.581438
479 2 0.988408 0.376302 0.70187
480 2 0.274593 0.071209 0.226949
481 2 0.114338 0.624805 0.797631
482 2 0.77207 0.533464 0.158734
483 2 0.173829 0.798663 0.194432
484 2 0.121753 0.419709 0.959582
485 2 0.442652 0.448252 0.521521
486 2 0.627585 0.407296 0.572822
487 2 0.650363 0.898174 0.717893
488 2 0.875095 0.248812 0.220903
489 2 0.98751 0.869887 0.874137
490 2 0.752087 0.132902 0.182559
491 2 0.444299 0.0276347 0.111068
492 2 0.708872 0.486334 0.708814
493 2 0.825132 0.21936 0.67117
494 2 0.665917 0.253587 0.590316
495 2 0.176312 0.139497 0.765694
496 2 0.699505 0.746584 0.745733
497 2 0.348625 0.739027 0.247038
498 2 0.0525652 0.579497 0.971021
499 2 0.764756 0.783356 0.0642631
500 2 0.140008 0.639544 0.228134
501 2 0.84144 0.612547 0.449029
502 2 0.507171 0.820388 0.700598
503 2 0.963419 0.944861 0.266656
504 2 0.603372 0.779205 0.0182099
505 2 0.0607751 0.307233 0.514461
506 2 0.107218 0.29069 0.799255
507 2 0.562428 0.508105 0.634903
508 2 0.247932 0.569146 0.601675
509 2 0.789479 0.359702 0.64893
510 2 0.938334 0.992636 0.553314
511 2 0.813225 0.68225 0.168447
512 2 0.733249 0.728003 0.491535
