Na Cl structure

 512 atoms
 2 atom types
 0.00 22.56 xlo xhi
 0.00 22.56 ylo yhi
 0.00 22.56 zlo zhi

 Masses

1 22.98976928
2 35.453

 Atoms

1 1 1 0.0 0.0 0.0 
2 1 1 2.82 0.0 2.82 
3 1 1 0.0 2.82 2.82 
4 1 1 2.82 2.82 0.0 
5 1 1 0.0 0.0 5.64 
6 1 1 2.82 0.0 8.459999999999999 
7 1 1 0.0 2.82 8.459999999999999 
8 1 1 2.82 2.82 5.64 
9 1 1 0.0 0.0 11.28 
10 1 1 2.82 0.0 14.1 
11 1 1 0.0 2.82 14.1 
12 1 1 2.82 2.82 11.28 
13 1 1 0.0 0.0 16.919999999999998 
14 1 1 2.82 0.0 19.74 
15 1 1 0.0 2.82 19.74 
16 1 1 2.82 2.82 16.919999999999998 
17 1 1 0.0 5.64 0.0 
18 1 1 2.82 5.64 2.82 
19 1 1 0.0 8.459999999999999 2.82 
20 1 1 2.82 8.459999999999999 0.0 
21 1 1 0.0 5.64 5.64 
22 1 1 2.82 5.64 8.459999999999999 
23 1 1 0.0 8.459999999999999 8.459999999999999 
24 1 1 2.82 8.459999999999999 5.64 
25 1 1 0.0 5.64 11.28 
26 1 1 2.82 5.64 14.1 
27 1 1 0.0 8.459999999999999 14.1 
28 1 1 2.82 8.459999999999999 11.28 
29 1 1 0.0 5.64 16.919999999999998 
30 1 1 2.82 5.64 19.74 
31 1 1 0.0 8.459999999999999 19.74 
32 1 1 2.82 8.459999999999999 16.919999999999998 
33 1 1 0.0 11.28 0.0 
34 1 1 2.82 11.28 2.82 
35 1 1 0.0 14.1 2.82 
36 1 1 2.82 14.1 0.0 
37 1 1 0.0 11.28 5.64 
38 1 1 2.82 11.28 8.459999999999999 
39 1 1 0.0 14.1 8.459999999999999 
40 1 1 2.82 14.1 5.64 
41 1 1 0.0 11.28 11.28 
42 1 1 2.82 11.28 14.1 
43 1 1 0.0 14.1 14.1 
44 1 1 2.82 14.1 11.28 
45 1 1 0.0 11.28 16.919999999999998 
46 1 1 2.82 11.28 19.74 
47 1 1 0.0 14.1 19.74 
48 1 1 2.82 14.1 16.919999999999998 
49 1 1 0.0 16.919999999999998 0.0 
50 1 1 2.82 16.919999999999998 2.82 
51 1 1 0.0 19.74 2.82 
52 1 1 2.82 19.74 0.0 
53 1 1 0.0 16.919999999999998 5.64 
54 1 1 2.82 16.919999999999998 8.459999999999999 
55 1 1 0.0 19.74 8.459999999999999 
56 1 1 2.82 19.74 5.64 
57 1 1 0.0 16.919999999999998 11.28 
58 1 1 2.82 16.919999999999998 14.1 
59 1 1 0.0 19.74 14.1 
60 1 1 2.82 19.74 11.28 
61 1 1 0.0 16.919999999999998 16.919999999999998 
62 1 1 2.82 16.919999999999998 19.74 
63 1 1 0.0 19.74 19.74 
64 1 1 2.82 19.74 16.919999999999998 
65 1 1 5.64 0.0 0.0 
66 1 1 8.459999999999999 0.0 2.82 
67 1 1 5.64 2.82 2.82 
68 1 1 8.459999999999999 2.82 0.0 
69 1 1 5.64 0.0 5.64 
70 1 1 8.459999999999999 0.0 8.459999999999999 
71 1 1 5.64 2.82 8.459999999999999 
72 1 1 8.459999999999999 2.82 5.64 
73 1 1 5.64 0.0 11.28 
74 1 1 8.459999999999999 0.0 14.1 
75 1 1 5.64 2.82 14.1 
76 1 1 8.459999999999999 2.82 11.28 
77 1 1 5.64 0.0 16.919999999999998 
78 1 1 8.459999999999999 0.0 19.74 
79 1 1 5.64 2.82 19.74 
80 1 1 8.459999999999999 2.82 16.919999999999998 
81 1 1 5.64 5.64 0.0 
82 1 1 8.459999999999999 5.64 2.82 
83 1 1 5.64 8.459999999999999 2.82 
84 1 1 8.459999999999999 8.459999999999999 0.0 
85 1 1 5.64 5.64 5.64 
86 1 1 8.459999999999999 5.64 8.459999999999999 
87 1 1 5.64 8.459999999999999 8.459999999999999 
88 1 1 8.459999999999999 8.459999999999999 5.64 
89 1 1 5.64 5.64 11.28 
90 1 1 8.459999999999999 5.64 14.1 
91 1 1 5.64 8.459999999999999 14.1 
92 1 1 8.459999999999999 8.459999999999999 11.28 
93 1 1 5.64 5.64 16.919999999999998 
94 1 1 8.459999999999999 5.64 19.74 
95 1 1 5.64 8.459999999999999 19.74 
96 1 1 8.459999999999999 8.459999999999999 16.919999999999998 
97 1 1 5.64 11.28 0.0 
98 1 1 8.459999999999999 11.28 2.82 
99 1 1 5.64 14.1 2.82 
100 1 1 8.459999999999999 14.1 0.0 
101 1 1 5.64 11.28 5.64 
102 1 1 8.459999999999999 11.28 8.459999999999999 
103 1 1 5.64 14.1 8.459999999999999 
104 1 1 8.459999999999999 14.1 5.64 
105 1 1 5.64 11.28 11.28 
106 1 1 8.459999999999999 11.28 14.1 
107 1 1 5.64 14.1 14.1 
108 1 1 8.459999999999999 14.1 11.28 
109 1 1 5.64 11.28 16.919999999999998 
110 1 1 8.459999999999999 11.28 19.74 
111 1 1 5.64 14.1 19.74 
112 1 1 8.459999999999999 14.1 16.919999999999998 
113 1 1 5.64 16.919999999999998 0.0 
114 1 1 8.459999999999999 16.919999999999998 2.82 
115 1 1 5.64 19.74 2.82 
116 1 1 8.459999999999999 19.74 0.0 
117 1 1 5.64 16.919999999999998 5.64 
118 1 1 8.459999999999999 16.919999999999998 8.459999999999999 
119 1 1 5.64 19.74 8.459999999999999 
120 1 1 8.459999999999999 19.74 5.64 
121 1 1 5.64 16.919999999999998 11.28 
122 1 1 8.459999999999999 16.919999999999998 14.1 
123 1 1 5.64 19.74 14.1 
124 1 1 8.459999999999999 19.74 11.28 
125 1 1 5.64 16.919999999999998 16.919999999999998 
126 1 1 8.459999999999999 16.919999999999998 19.74 
127 1 1 5.64 19.74 19.74 
128 1 1 8.459999999999999 19.74 16.919999999999998 
129 1 1 11.28 0.0 0.0 
130 1 1 14.1 0.0 2.82 
131 1 1 11.28 2.82 2.82 
132 1 1 14.1 2.82 0.0 
133 1 1 11.28 0.0 5.64 
134 1 1 14.1 0.0 8.459999999999999 
135 1 1 11.28 2.82 8.459999999999999 
136 1 1 14.1 2.82 5.64 
137 1 1 11.28 0.0 11.28 
138 1 1 14.1 0.0 14.1 
139 1 1 11.28 2.82 14.1 
140 1 1 14.1 2.82 11.28 
141 1 1 11.28 0.0 16.919999999999998 
142 1 1 14.1 0.0 19.74 
143 1 1 11.28 2.82 19.74 
144 1 1 14.1 2.82 16.919999999999998 
145 1 1 11.28 5.64 0.0 
146 1 1 14.1 5.64 2.82 
147 1 1 11.28 8.459999999999999 2.82 
148 1 1 14.1 8.459999999999999 0.0 
149 1 1 11.28 5.64 5.64 
150 1 1 14.1 5.64 8.459999999999999 
151 1 1 11.28 8.459999999999999 8.459999999999999 
152 1 1 14.1 8.459999999999999 5.64 
153 1 1 11.28 5.64 11.28 
154 1 1 14.1 5.64 14.1 
155 1 1 11.28 8.459999999999999 14.1 
156 1 1 14.1 8.459999999999999 11.28 
157 1 1 11.28 5.64 16.919999999999998 
158 1 1 14.1 5.64 19.74 
159 1 1 11.28 8.459999999999999 19.74 
160 1 1 14.1 8.459999999999999 16.919999999999998 
161 1 1 11.28 11.28 0.0 
162 1 1 14.1 11.28 2.82 
163 1 1 11.28 14.1 2.82 
164 1 1 14.1 14.1 0.0 
165 1 1 11.28 11.28 5.64 
166 1 1 14.1 11.28 8.459999999999999 
167 1 1 11.28 14.1 8.459999999999999 
168 1 1 14.1 14.1 5.64 
169 1 1 11.28 11.28 11.28 
170 1 1 14.1 11.28 14.1 
171 1 1 11.28 14.1 14.1 
172 1 1 14.1 14.1 11.28 
173 1 1 11.28 11.28 16.919999999999998 
174 1 1 14.1 11.28 19.74 
175 1 1 11.28 14.1 19.74 
176 1 1 14.1 14.1 16.919999999999998 
177 1 1 11.28 16.919999999999998 0.0 
178 1 1 14.1 16.919999999999998 2.82 
179 1 1 11.28 19.74 2.82 
180 1 1 14.1 19.74 0.0 
181 1 1 11.28 16.919999999999998 5.64 
182 1 1 14.1 16.919999999999998 8.459999999999999 
183 1 1 11.28 19.74 8.459999999999999 
184 1 1 14.1 19.74 5.64 
185 1 1 11.28 16.919999999999998 11.28 
186 1 1 14.1 16.919999999999998 14.1 
187 1 1 11.28 19.74 14.1 
188 1 1 14.1 19.74 11.28 
189 1 1 11.28 16.919999999999998 16.919999999999998 
190 1 1 14.1 16.919999999999998 19.74 
191 1 1 11.28 19.74 19.74 
192 1 1 14.1 19.74 16.919999999999998 
193 1 1 16.919999999999998 0.0 0.0 
194 1 1 19.74 0.0 2.82 
195 1 1 16.919999999999998 2.82 2.82 
196 1 1 19.74 2.82 0.0 
197 1 1 16.919999999999998 0.0 5.64 
198 1 1 19.74 0.0 8.459999999999999 
199 1 1 16.919999999999998 2.82 8.459999999999999 
200 1 1 19.74 2.82 5.64 
201 1 1 16.919999999999998 0.0 11.28 
202 1 1 19.74 0.0 14.1 
203 1 1 16.919999999999998 2.82 14.1 
204 1 1 19.74 2.82 11.28 
205 1 1 16.919999999999998 0.0 16.919999999999998 
206 1 1 19.74 0.0 19.74 
207 1 1 16.919999999999998 2.82 19.74 
208 1 1 19.74 2.82 16.919999999999998 
209 1 1 16.919999999999998 5.64 0.0 
210 1 1 19.74 5.64 2.82 
211 1 1 16.919999999999998 8.459999999999999 2.82 
212 1 1 19.74 8.459999999999999 0.0 
213 1 1 16.919999999999998 5.64 5.64 
214 1 1 19.74 5.64 8.459999999999999 
215 1 1 16.919999999999998 8.459999999999999 8.459999999999999 
216 1 1 19.74 8.459999999999999 5.64 
217 1 1 16.919999999999998 5.64 11.28 
218 1 1 19.74 5.64 14.1 
219 1 1 16.919999999999998 8.459999999999999 14.1 
220 1 1 19.74 8.459999999999999 11.28 
221 1 1 16.919999999999998 5.64 16.919999999999998 
222 1 1 19.74 5.64 19.74 
223 1 1 16.919999999999998 8.459999999999999 19.74 
224 1 1 19.74 8.459999999999999 16.919999999999998 
225 1 1 16.919999999999998 11.28 0.0 
226 1 1 19.74 11.28 2.82 
227 1 1 16.919999999999998 14.1 2.82 
228 1 1 19.74 14.1 0.0 
229 1 1 16.919999999999998 11.28 5.64 
230 1 1 19.74 11.28 8.459999999999999 
231 1 1 16.919999999999998 14.1 8.459999999999999 
232 1 1 19.74 14.1 5.64 
233 1 1 16.919999999999998 11.28 11.28 
234 1 1 19.74 11.28 14.1 
235 1 1 16.919999999999998 14.1 14.1 
236 1 1 19.74 14.1 11.28 
237 1 1 16.919999999999998 11.28 16.919999999999998 
238 1 1 19.74 11.28 19.74 
239 1 1 16.919999999999998 14.1 19.74 
240 1 1 19.74 14.1 16.919999999999998 
241 1 1 16.919999999999998 16.919999999999998 0.0 
242 1 1 19.74 16.919999999999998 2.82 
243 1 1 16.919999999999998 19.74 2.82 
244 1 1 19.74 19.74 0.0 
245 1 1 16.919999999999998 16.919999999999998 5.64 
246 1 1 19.74 16.919999999999998 8.459999999999999 
247 1 1 16.919999999999998 19.74 8.459999999999999 
248 1 1 19.74 19.74 5.64 
249 1 1 16.919999999999998 16.919999999999998 11.28 
250 1 1 19.74 16.919999999999998 14.1 
251 1 1 16.919999999999998 19.74 14.1 
252 1 1 19.74 19.74 11.28 
253 1 1 16.919999999999998 16.919999999999998 16.919999999999998 
254 1 1 19.74 16.919999999999998 19.74 
255 1 1 16.919999999999998 19.74 19.74 
256 1 1 19.74 19.74 16.919999999999998 
257 2 -1 2.82 2.82 2.82 
258 2 -1 2.82 0.0 0.0 
259 2 -1 0.0 2.82 0.0 
260 2 -1 0.0 0.0 2.82 
261 2 -1 2.82 2.82 8.459999999999999 
262 2 -1 2.82 0.0 5.64 
263 2 -1 0.0 2.82 5.64 
264 2 -1 0.0 0.0 8.459999999999999 
265 2 -1 2.82 2.82 14.1 
266 2 -1 2.82 0.0 11.28 
267 2 -1 0.0 2.82 11.28 
268 2 -1 0.0 0.0 14.1 
269 2 -1 2.82 2.82 19.74 
270 2 -1 2.82 0.0 16.919999999999998 
271 2 -1 0.0 2.82 16.919999999999998 
272 2 -1 0.0 0.0 19.74 
273 2 -1 2.82 8.459999999999999 2.82 
274 2 -1 2.82 5.64 0.0 
275 2 -1 0.0 8.459999999999999 0.0 
276 2 -1 0.0 5.64 2.82 
277 2 -1 2.82 8.459999999999999 8.459999999999999 
278 2 -1 2.82 5.64 5.64 
279 2 -1 0.0 8.459999999999999 5.64 
280 2 -1 0.0 5.64 8.459999999999999 
281 2 -1 2.82 8.459999999999999 14.1 
282 2 -1 2.82 5.64 11.28 
283 2 -1 0.0 8.459999999999999 11.28 
284 2 -1 0.0 5.64 14.1 
285 2 -1 2.82 8.459999999999999 19.74 
286 2 -1 2.82 5.64 16.919999999999998 
287 2 -1 0.0 8.459999999999999 16.919999999999998 
288 2 -1 0.0 5.64 19.74 
289 2 -1 2.82 14.1 2.82 
290 2 -1 2.82 11.28 0.0 
291 2 -1 0.0 14.1 0.0 
292 2 -1 0.0 11.28 2.82 
293 2 -1 2.82 14.1 8.459999999999999 
294 2 -1 2.82 11.28 5.64 
295 2 -1 0.0 14.1 5.64 
296 2 -1 0.0 11.28 8.459999999999999 
297 2 -1 2.82 14.1 14.1 
298 2 -1 2.82 11.28 11.28 
299 2 -1 0.0 14.1 11.28 
300 2 -1 0.0 11.28 14.1 
301 2 -1 2.82 14.1 19.74 
302 2 -1 2.82 11.28 16.919999999999998 
303 2 -1 0.0 14.1 16.919999999999998 
304 2 -1 0.0 11.28 19.74 
305 2 -1 2.82 19.74 2.82 
306 2 -1 2.82 16.919999999999998 0.0 
307 2 -1 0.0 19.74 0.0 
308 2 -1 0.0 16.919999999999998 2.82 
309 2 -1 2.82 19.74 8.459999999999999 
310 2 -1 2.82 16.919999999999998 5.64 
311 2 -1 0.0 19.74 5.64 
312 2 -1 0.0 16.919999999999998 8.459999999999999 
313 2 -1 2.82 19.74 14.1 
314 2 -1 2.82 16.919999999999998 11.28 
315 2 -1 0.0 19.74 11.28 
316 2 -1 0.0 16.919999999999998 14.1 
317 2 -1 2.82 19.74 19.74 
318 2 -1 2.82 16.919999999999998 16.919999999999998 
319 2 -1 0.0 19.74 16.919999999999998 
320 2 -1 0.0 16.919999999999998 19.74 
321 2 -1 8.459999999999999 2.82 2.82 
322 2 -1 8.459999999999999 0.0 0.0 
323 2 -1 5.64 2.82 0.0 
324 2 -1 5.64 0.0 2.82 
325 2 -1 8.459999999999999 2.82 8.459999999999999 
326 2 -1 8.459999999999999 0.0 5.64 
327 2 -1 5.64 2.82 5.64 
328 2 -1 5.64 0.0 8.459999999999999 
329 2 -1 8.459999999999999 2.82 14.1 
330 2 -1 8.459999999999999 0.0 11.28 
331 2 -1 5.64 2.82 11.28 
332 2 -1 5.64 0.0 14.1 
333 2 -1 8.459999999999999 2.82 19.74 
334 2 -1 8.459999999999999 0.0 16.919999999999998 
335 2 -1 5.64 2.82 16.919999999999998 
336 2 -1 5.64 0.0 19.74 
337 2 -1 8.459999999999999 8.459999999999999 2.82 
338 2 -1 8.459999999999999 5.64 0.0 
339 2 -1 5.64 8.459999999999999 0.0 
340 2 -1 5.64 5.64 2.82 
341 2 -1 8.459999999999999 8.459999999999999 8.459999999999999 
342 2 -1 8.459999999999999 5.64 5.64 
343 2 -1 5.64 8.459999999999999 5.64 
344 2 -1 5.64 5.64 8.459999999999999 
345 2 -1 8.459999999999999 8.459999999999999 14.1 
346 2 -1 8.459999999999999 5.64 11.28 
347 2 -1 5.64 8.459999999999999 11.28 
348 2 -1 5.64 5.64 14.1 
349 2 -1 8.459999999999999 8.459999999999999 19.74 
350 2 -1 8.459999999999999 5.64 16.919999999999998 
351 2 -1 5.64 8.459999999999999 16.919999999999998 
352 2 -1 5.64 5.64 19.74 
353 2 -1 8.459999999999999 14.1 2.82 
354 2 -1 8.459999999999999 11.28 0.0 
355 2 -1 5.64 14.1 0.0 
356 2 -1 5.64 11.28 2.82 
357 2 -1 8.459999999999999 14.1 8.459999999999999 
358 2 -1 8.459999999999999 11.28 5.64 
359 2 -1 5.64 14.1 5.64 
360 2 -1 5.64 11.28 8.459999999999999 
361 2 -1 8.459999999999999 14.1 14.1 
362 2 -1 8.459999999999999 11.28 11.28 
363 2 -1 5.64 14.1 11.28 
364 2 -1 5.64 11.28 14.1 
365 2 -1 8.459999999999999 14.1 19.74 
366 2 -1 8.459999999999999 11.28 16.919999999999998 
367 2 -1 5.64 14.1 16.919999999999998 
368 2 -1 5.64 11.28 19.74 
369 2 -1 8.459999999999999 19.74 2.82 
370 2 -1 8.459999999999999 16.919999999999998 0.0 
371 2 -1 5.64 19.74 0.0 
372 2 -1 5.64 16.919999999999998 2.82 
373 2 -1 8.459999999999999 19.74 8.459999999999999 
374 2 -1 8.459999999999999 16.919999999999998 5.64 
375 2 -1 5.64 19.74 5.64 
376 2 -1 5.64 16.919999999999998 8.459999999999999 
377 2 -1 8.459999999999999 19.74 14.1 
378 2 -1 8.459999999999999 16.919999999999998 11.28 
379 2 -1 5.64 19.74 11.28 
380 2 -1 5.64 16.919999999999998 14.1 
381 2 -1 8.459999999999999 19.74 19.74 
382 2 -1 8.459999999999999 16.919999999999998 16.919999999999998 
383 2 -1 5.64 19.74 16.919999999999998 
384 2 -1 5.64 16.919999999999998 19.74 
385 2 -1 14.1 2.82 2.82 
386 2 -1 14.1 0.0 0.0 
387 2 -1 11.28 2.82 0.0 
388 2 -1 11.28 0.0 2.82 
389 2 -1 14.1 2.82 8.459999999999999 
390 2 -1 14.1 0.0 5.64 
391 2 -1 11.28 2.82 5.64 
392 2 -1 11.28 0.0 8.459999999999999 
393 2 -1 14.1 2.82 14.1 
394 2 -1 14.1 0.0 11.28 
395 2 -1 11.28 2.82 11.28 
396 2 -1 11.28 0.0 14.1 
397 2 -1 14.1 2.82 19.74 
398 2 -1 14.1 0.0 16.919999999999998 
399 2 -1 11.28 2.82 16.919999999999998 
400 2 -1 11.28 0.0 19.74 
401 2 -1 14.1 8.459999999999999 2.82 
402 2 -1 14.1 5.64 0.0 
403 2 -1 11.28 8.459999999999999 0.0 
404 2 -1 11.28 5.64 2.82 
405 2 -1 14.1 8.459999999999999 8.459999999999999 
406 2 -1 14.1 5.64 5.64 
407 2 -1 11.28 8.459999999999999 5.64 
408 2 -1 11.28 5.64 8.459999999999999 
409 2 -1 14.1 8.459999999999999 14.1 
410 2 -1 14.1 5.64 11.28 
411 2 -1 11.28 8.459999999999999 11.28 
412 2 -1 11.28 5.64 14.1 
413 2 -1 14.1 8.459999999999999 19.74 
414 2 -1 14.1 5.64 16.919999999999998 
415 2 -1 11.28 8.459999999999999 16.919999999999998 
416 2 -1 11.28 5.64 19.74 
417 2 -1 14.1 14.1 2.82 
418 2 -1 14.1 11.28 0.0 
419 2 -1 11.28 14.1 0.0 
420 2 -1 11.28 11.28 2.82 
421 2 -1 14.1 14.1 8.459999999999999 
422 2 -1 14.1 11.28 5.64 
423 2 -1 11.28 14.1 5.64 
424 2 -1 11.28 11.28 8.459999999999999 
425 2 -1 14.1 14.1 14.1 
426 2 -1 14.1 11.28 11.28 
427 2 -1 11.28 14.1 11.28 
428 2 -1 11.28 11.28 14.1 
429 2 -1 14.1 14.1 19.74 
430 2 -1 14.1 11.28 16.919999999999998 
431 2 -1 11.28 14.1 16.919999999999998 
432 2 -1 11.28 11.28 19.74 
433 2 -1 14.1 19.74 2.82 
434 2 -1 14.1 16.919999999999998 0.0 
435 2 -1 11.28 19.74 0.0 
436 2 -1 11.28 16.919999999999998 2.82 
437 2 -1 14.1 19.74 8.459999999999999 
438 2 -1 14.1 16.919999999999998 5.64 
439 2 -1 11.28 19.74 5.64 
440 2 -1 11.28 16.919999999999998 8.459999999999999 
441 2 -1 14.1 19.74 14.1 
442 2 -1 14.1 16.919999999999998 11.28 
443 2 -1 11.28 19.74 11.28 
444 2 -1 11.28 16.919999999999998 14.1 
445 2 -1 14.1 19.74 19.74 
446 2 -1 14.1 16.919999999999998 16.919999999999998 
447 2 -1 11.28 19.74 16.919999999999998 
448 2 -1 11.28 16.919999999999998 19.74 
449 2 -1 19.74 2.82 2.82 
450 2 -1 19.74 0.0 0.0 
451 2 -1 16.919999999999998 2.82 0.0 
452 2 -1 16.919999999999998 0.0 2.82 
453 2 -1 19.74 2.82 8.459999999999999 
454 2 -1 19.74 0.0 5.64 
455 2 -1 16.919999999999998 2.82 5.64 
456 2 -1 16.919999999999998 0.0 8.459999999999999 
457 2 -1 19.74 2.82 14.1 
458 2 -1 19.74 0.0 11.28 
459 2 -1 16.919999999999998 2.82 11.28 
460 2 -1 16.919999999999998 0.0 14.1 
461 2 -1 19.74 2.82 19.74 
462 2 -1 19.74 0.0 16.919999999999998 
463 2 -1 16.919999999999998 2.82 16.919999999999998 
464 2 -1 16.919999999999998 0.0 19.74 
465 2 -1 19.74 8.459999999999999 2.82 
466 2 -1 19.74 5.64 0.0 
467 2 -1 16.919999999999998 8.459999999999999 0.0 
468 2 -1 16.919999999999998 5.64 2.82 
469 2 -1 19.74 8.459999999999999 8.459999999999999 
470 2 -1 19.74 5.64 5.64 
471 2 -1 16.919999999999998 8.459999999999999 5.64 
472 2 -1 16.919999999999998 5.64 8.459999999999999 
473 2 -1 19.74 8.459999999999999 14.1 
474 2 -1 19.74 5.64 11.28 
475 2 -1 16.919999999999998 8.459999999999999 11.28 
476 2 -1 16.919999999999998 5.64 14.1 
477 2 -1 19.74 8.459999999999999 19.74 
478 2 -1 19.74 5.64 16.919999999999998 
479 2 -1 16.919999999999998 8.459999999999999 16.919999999999998 
480 2 -1 16.919999999999998 5.64 19.74 
481 2 -1 19.74 14.1 2.82 
482 2 -1 19.74 11.28 0.0 
483 2 -1 16.919999999999998 14.1 0.0 
484 2 -1 16.919999999999998 11.28 2.82 
485 2 -1 19.74 14.1 8.459999999999999 
486 2 -1 19.74 11.28 5.64 
487 2 -1 16.919999999999998 14.1 5.64 
488 2 -1 16.919999999999998 11.28 8.459999999999999 
489 2 -1 19.74 14.1 14.1 
490 2 -1 19.74 11.28 11.28 
491 2 -1 16.919999999999998 14.1 11.28 
492 2 -1 16.919999999999998 11.28 14.1 
493 2 -1 19.74 14.1 19.74 
494 2 -1 19.74 11.28 16.919999999999998 
495 2 -1 16.919999999999998 14.1 16.919999999999998 
496 2 -1 16.919999999999998 11.28 19.74 
497 2 -1 19.74 19.74 2.82 
498 2 -1 19.74 16.919999999999998 0.0 
499 2 -1 16.919999999999998 19.74 0.0 
500 2 -1 16.919999999999998 16.919999999999998 2.82 
501 2 -1 19.74 19.74 8.459999999999999 
502 2 -1 19.74 16.919999999999998 5.64 
503 2 -1 16.919999999999998 19.74 5.64 
504 2 -1 16.919999999999998 16.919999999999998 8.459999999999999 
505 2 -1 19.74 19.74 14.1 
506 2 -1 19.74 16.919999999999998 11.28 
507 2 -1 16.919999999999998 19.74 11.28 
508 2 -1 16.919999999999998 16.919999999999998 14.1 
509 2 -1 19.74 19.74 19.74 
510 2 -1 19.74 16.919999999999998 16.919999999999998 
511 2 -1 16.919999999999998 19.74 16.919999999999998 
512 2 -1 16.919999999999998 16.919999999999998 19.74 
