ITEM: TIMESTEP
89
ITEM: NUMBER OF ATOMS
512
ITEM: BOX BOUNDS pp pp pp
0.0000000000000000e+00 2.2754691791361896e+01
0.0000000000000000e+00 2.2754691791361896e+01
0.0000000000000000e+00 2.2754691791361896e+01
ITEM: ATOMS id type xs ys zs
1 1 4.55504e-19 4.62378e-19 4.62751e-19
2 1 0.125 4.66945e-19 0.125
3 1 4.66367e-19 0.125 0.125
4 1 0.125 0.125 4.67829e-19
5 1 4.64416e-19 4.67652e-19 0.25
6 1 0.125 4.69517e-19 0.375
7 1 4.67887e-19 0.125 0.375
8 1 0.125 0.125 0.25
9 1 4.62559e-19 4.65989e-19 0.5
10 1 0.125 4.70757e-19 0.625
11 1 4.6894e-19 0.125 0.625
12 1 0.125 0.125 0.5
13 1 4.62866e-19 4.68662e-19 0.75
14 1 0.125 4.7022e-19 0.875
15 1 4.69051e-19 0.125 0.875
16 1 0.125 0.125 0.75
17 1 4.73587e-19 0.25 4.68654e-19
18 1 0.125 0.25 0.125
19 1 4.73424e-19 0.375 0.125
20 1 0.125 0.375 4.65436e-19
21 1 4.67106e-19 0.25 0.25
22 1 0.125 0.25 0.375
23 1 4.67577e-19 0.375 0.375
24 1 0.125 0.375 0.25
25 1 4.65774e-19 0.25 0.5
26 1 0.125 0.25 0.625
27 1 4.72102e-19 0.375 0.625
28 1 0.125 0.375 0.5
29 1 4.72073e-19 0.25 0.75
30 1 0.125 0.25 0.875
31 1 4.77124e-19 0.375 0.875
32 1 0.125 0.375 0.75
33 1 4.71533e-19 0.5 4.67569e-19
34 1 0.125 0.5 0.125
35 1 4.68615e-19 0.625 0.125
36 1 0.125 0.625 4.68386e-19
37 1 4.66538e-19 0.5 0.25
38 1 0.125 0.5 0.375
39 1 4.66549e-19 0.625 0.375
40 1 0.125 0.625 0.25
41 1 4.64087e-19 0.5 0.5
42 1 0.125 0.5 0.625
43 1 4.68352e-19 0.625 0.625
44 1 0.125 0.625 0.5
45 1 4.71736e-19 0.5 0.75
46 1 0.125 0.5 0.875
47 1 4.69261e-19 0.625 0.875
48 1 0.125 0.625 0.75
49 1 4.63995e-19 0.75 4.68692e-19
50 1 0.125 0.75 0.125
51 1 4.62099e-19 0.875 0.125
52 1 0.125 0.875 4.69825e-19
53 1 4.65448e-19 0.75 0.25
54 1 0.125 0.75 0.375
55 1 4.67419e-19 0.875 0.375
56 1 0.125 0.875 0.25
57 1 4.65215e-19 0.75 0.5
58 1 0.125 0.75 0.625
59 1 4.65581e-19 0.875 0.625
60 1 0.125 0.875 0.5
61 1 4.66648e-19 0.75 0.75
62 1 0.125 0.75 0.875
63 1 4.59394e-19 0.875 0.875
64 1 0.125 0.875 0.75
65 1 0.25 4.73515e-19 4.72391e-19
66 1 0.375 4.73823e-19 0.125
67 1 0.25 0.125 0.125
68 1 0.375 0.125 4.71001e-19
69 1 0.25 4.6602e-19 0.25
70 1 0.375 4.68958e-19 0.375
71 1 0.25 0.125 0.375
72 1 0.375 0.125 0.25
73 1 0.25 4.70536e-19 0.5
74 1 0.375 4.6764e-19 0.625
75 1 0.25 0.125 0.625
76 1 0.375 0.125 0.5
77 1 0.25 4.7178e-19 0.75
78 1 0.375 4.70207e-19 0.875
79 1 0.25 0.125 0.875
80 1 0.375 0.125 0.75
81 1 0.25 0.25 4.68612e-19
82 1 0.375 0.25 0.125
83 1 0.25 0.375 0.125
84 1 0.375 0.375 4.70728e-19
85 1 0.25 0.25 0.25
86 1 0.375 0.25 0.375
87 1 0.25 0.375 0.375
88 1 0.375 0.375 0.25
89 1 0.25 0.25 0.5
90 1 0.375 0.25 0.625
91 1 0.25 0.375 0.625
92 1 0.375 0.375 0.5
93 1 0.25 0.25 0.75
94 1 0.375 0.25 0.875
95 1 0.25 0.375 0.875
96 1 0.375 0.375 0.75
97 1 0.25 0.5 4.6662e-19
98 1 0.375 0.5 0.125
99 1 0.25 0.625 0.125
100 1 0.375 0.625 4.69961e-19
101 1 0.25 0.5 0.25
102 1 0.375 0.5 0.375
103 1 0.25 0.625 0.375
104 1 0.375 0.625 0.25
105 1 0.25 0.5 0.5
106 1 0.375 0.5 0.625
107 1 0.25 0.625 0.625
108 1 0.375 0.625 0.5
109 1 0.25 0.5 0.75
110 1 0.375 0.5 0.875
111 1 0.25 0.625 0.875
112 1 0.375 0.625 0.75
113 1 0.25 0.75 4.71498e-19
114 1 0.375 0.75 0.125
115 1 0.25 0.875 0.125
116 1 0.375 0.875 4.69329e-19
117 1 0.25 0.75 0.25
118 1 0.375 0.75 0.375
119 1 0.25 0.875 0.375
120 1 0.375 0.875 0.25
121 1 0.25 0.75 0.5
122 1 0.375 0.75 0.625
123 1 0.25 0.875 0.625
124 1 0.375 0.875 0.5
125 1 0.25 0.75 0.75
126 1 0.375 0.75 0.875
127 1 0.25 0.875 0.875
128 1 0.375 0.875 0.75
129 1 0.5 4.71082e-19 4.6864e-19
130 1 0.625 4.70993e-19 0.125
131 1 0.5 0.125 0.125
132 1 0.625 0.125 4.68842e-19
133 1 0.5 4.69191e-19 0.25
134 1 0.625 4.71112e-19 0.375
135 1 0.5 0.125 0.375
136 1 0.625 0.125 0.25
137 1 0.5 4.68142e-19 0.5
138 1 0.625 4.71675e-19 0.625
139 1 0.5 0.125 0.625
140 1 0.625 0.125 0.5
141 1 0.5 4.71263e-19 0.75
142 1 0.625 4.69648e-19 0.875
143 1 0.5 0.125 0.875
144 1 0.625 0.125 0.75
145 1 0.5 0.25 4.69707e-19
146 1 0.625 0.25 0.125
147 1 0.5 0.375 0.125
148 1 0.625 0.375 4.7139e-19
149 1 0.5 0.25 0.25
150 1 0.625 0.25 0.375
151 1 0.5 0.375 0.375
152 1 0.625 0.375 0.25
153 1 0.5 0.25 0.5
154 1 0.625 0.25 0.625
155 1 0.5 0.375 0.625
156 1 0.625 0.375 0.5
157 1 0.5 0.25 0.75
158 1 0.625 0.25 0.875
159 1 0.5 0.375 0.875
160 1 0.625 0.375 0.75
161 1 0.5 0.5 4.6851e-19
162 1 0.625 0.5 0.125
163 1 0.5 0.625 0.125
164 1 0.625 0.625 4.68958e-19
165 1 0.5 0.5 0.25
166 1 0.625 0.5 0.375
167 1 0.5 0.625 0.375
168 1 0.625 0.625 0.25
169 1 0.5 0.5 0.5
170 1 0.625 0.5 0.625
171 1 0.5 0.625 0.625
172 1 0.625 0.625 0.5
173 1 0.5 0.5 0.75
174 1 0.625 0.5 0.875
175 1 0.5 0.625 0.875
176 1 0.625 0.625 0.75
177 1 0.5 0.75 4.6936e-19
178 1 0.625 0.75 0.125
179 1 0.5 0.875 0.125
180 1 0.625 0.875 4.66231e-19
181 1 0.5 0.75 0.25
182 1 0.625 0.75 0.375
183 1 0.5 0.875 0.375
184 1 0.625 0.875 0.25
185 1 0.5 0.75 0.5
186 1 0.625 0.75 0.625
187 1 0.5 0.875 0.625
188 1 0.625 0.875 0.5
189 1 0.5 0.75 0.75
190 1 0.625 0.75 0.875
191 1 0.5 0.875 0.875
192 1 0.625 0.875 0.75
193 1 0.75 4.64329e-19 4.64356e-19
194 1 0.875 4.64733e-19 0.125
195 1 0.75 0.125 0.125
196 1 0.875 0.125 4.6752e-19
197 1 0.75 4.70052e-19 0.25
198 1 0.875 4.70296e-19 0.375
199 1 0.75 0.125 0.375
200 1 0.875 0.125 0.25
201 1 0.75 4.67468e-19 0.5
202 1 0.875 4.70152e-19 0.625
203 1 0.75 0.125 0.625
204 1 0.875 0.125 0.5
205 1 0.75 4.6554e-19 0.75
206 1 0.875 4.662e-19 0.875
207 1 0.75 0.125 0.875
208 1 0.875 0.125 0.75
209 1 0.75 0.25 4.72838e-19
210 1 0.875 0.25 0.125
211 1 0.75 0.375 0.125
212 1 0.875 0.375 4.70944e-19
213 1 0.75 0.25 0.25
214 1 0.875 0.25 0.375
215 1 0.75 0.375 0.375
216 1 0.875 0.375 0.25
217 1 0.75 0.25 0.5
218 1 0.875 0.25 0.625
219 1 0.75 0.375 0.625
220 1 0.875 0.375 0.5
221 1 0.75 0.25 0.75
222 1 0.875 0.25 0.875
223 1 0.75 0.375 0.875
224 1 0.875 0.375 0.75
225 1 0.75 0.5 4.6965e-19
226 1 0.875 0.5 0.125
227 1 0.75 0.625 0.125
228 1 0.875 0.625 4.69382e-19
229 1 0.75 0.5 0.25
230 1 0.875 0.5 0.375
231 1 0.75 0.625 0.375
232 1 0.875 0.625 0.25
233 1 0.75 0.5 0.5
234 1 0.875 0.5 0.625
235 1 0.75 0.625 0.625
236 1 0.875 0.625 0.5
237 1 0.75 0.5 0.75
238 1 0.875 0.5 0.875
239 1 0.75 0.625 0.875
240 1 0.875 0.625 0.75
241 1 0.75 0.75 4.67186e-19
242 1 0.875 0.75 0.125
243 1 0.75 0.875 0.125
244 1 0.875 0.875 4.67951e-19
245 1 0.75 0.75 0.25
246 1 0.875 0.75 0.375
247 1 0.75 0.875 0.375
248 1 0.875 0.875 0.25
249 1 0.75 0.75 0.5
250 1 0.875 0.75 0.625
251 1 0.75 0.875 0.625
252 1 0.875 0.875 0.5
253 1 0.75 0.75 0.75
254 1 0.875 0.75 0.875
255 1 0.75 0.875 0.875
256 1 0.875 0.875 0.75
257 2 0.125 0.125 0.125
258 2 0.125 5.33047e-19 5.30543e-19
259 2 5.33362e-19 0.125 5.31967e-19
260 2 5.35914e-19 5.33628e-19 0.125
261 2 0.125 0.125 0.375
262 2 0.125 5.3404e-19 0.25
263 2 5.32878e-19 0.125 0.25
264 2 5.29773e-19 5.27951e-19 0.375
265 2 0.125 0.125 0.625
266 2 0.125 5.29929e-19 0.5
267 2 5.30341e-19 0.125 0.5
268 2 5.36296e-19 5.33606e-19 0.625
269 2 0.125 0.125 0.875
270 2 0.125 5.30601e-19 0.75
271 2 5.31225e-19 0.125 0.75
272 2 5.36918e-19 5.32836e-19 0.875
273 2 0.125 0.375 0.125
274 2 0.125 0.25 5.35575e-19
275 2 5.22869e-19 0.375 5.30772e-19
276 2 5.32531e-19 0.25 0.125
277 2 0.125 0.375 0.375
278 2 0.125 0.25 0.25
279 2 5.31867e-19 0.375 0.25
280 2 5.31001e-19 0.25 0.375
281 2 0.125 0.375 0.625
282 2 0.125 0.25 0.5
283 2 5.2984e-19 0.375 0.5
284 2 5.30735e-19 0.25 0.625
285 2 0.125 0.375 0.875
286 2 0.125 0.25 0.75
287 2 5.24142e-19 0.375 0.75
288 2 5.22258e-19 0.25 0.875
289 2 0.125 0.625 0.125
290 2 0.125 0.5 5.31713e-19
291 2 5.32423e-19 0.625 5.32357e-19
292 2 5.30275e-19 0.5 0.125
293 2 0.125 0.625 0.375
294 2 0.125 0.5 0.25
295 2 5.41564e-19 0.625 0.25
296 2 5.30663e-19 0.5 0.375
297 2 0.125 0.625 0.625
298 2 0.125 0.5 0.5
299 2 5.35395e-19 0.625 0.5
300 2 5.2855e-19 0.5 0.625
301 2 0.125 0.625 0.875
302 2 0.125 0.5 0.75
303 2 5.35352e-19 0.625 0.75
304 2 5.2375e-19 0.5 0.875
305 2 0.125 0.875 0.125
306 2 0.125 0.75 5.30847e-19
307 2 5.38351e-19 0.875 5.29427e-19
308 2 5.36398e-19 0.75 0.125
309 2 0.125 0.875 0.375
310 2 0.125 0.75 0.25
311 2 5.35107e-19 0.875 0.25
312 2 5.33463e-19 0.75 0.375
313 2 0.125 0.875 0.625
314 2 0.125 0.75 0.5
315 2 5.31496e-19 0.875 0.5
316 2 5.38342e-19 0.75 0.625
317 2 0.125 0.875 0.875
318 2 0.125 0.75 0.75
319 2 5.35228e-19 0.875 0.75
320 2 5.35375e-19 0.75 0.875
321 2 0.375 0.125 0.125
322 2 0.375 5.2262e-19 5.27467e-19
323 2 0.25 0.125 5.32792e-19
324 2 0.25 5.29992e-19 0.125
325 2 0.375 0.125 0.375
326 2 0.375 5.30296e-19 0.25
327 2 0.25 0.125 0.25
328 2 0.25 5.31375e-19 0.375
329 2 0.375 0.125 0.625
330 2 0.375 5.28632e-19 0.5
331 2 0.25 0.125 0.5
332 2 0.25 5.325e-19 0.625
333 2 0.375 0.125 0.875
334 2 0.375 5.31418e-19 0.75
335 2 0.25 0.125 0.75
336 2 0.25 5.25844e-19 0.875
337 2 0.375 0.375 0.125
338 2 0.375 0.25 5.32053e-19
339 2 0.25 0.375 5.34256e-19
340 2 0.25 0.25 0.125
341 2 0.375 0.375 0.375
342 2 0.375 0.25 0.25
343 2 0.25 0.375 0.25
344 2 0.25 0.25 0.375
345 2 0.375 0.375 0.625
346 2 0.375 0.25 0.5
347 2 0.25 0.375 0.5
348 2 0.25 0.25 0.625
349 2 0.375 0.375 0.875
350 2 0.375 0.25 0.75
351 2 0.25 0.375 0.75
352 2 0.25 0.25 0.875
353 2 0.375 0.625 0.125
354 2 0.375 0.5 5.29766e-19
355 2 0.25 0.625 5.35019e-19
356 2 0.25 0.5 0.125
357 2 0.375 0.625 0.375
358 2 0.375 0.5 0.25
359 2 0.25 0.625 0.25
360 2 0.25 0.5 0.375
361 2 0.375 0.625 0.625
362 2 0.375 0.5 0.5
363 2 0.25 0.625 0.5
364 2 0.25 0.5 0.625
365 2 0.375 0.625 0.875
366 2 0.375 0.5 0.75
367 2 0.25 0.625 0.75
368 2 0.25 0.5 0.875
369 2 0.375 0.875 0.125
370 2 0.375 0.75 5.31154e-19
371 2 0.25 0.875 5.29387e-19
372 2 0.25 0.75 0.125
373 2 0.375 0.875 0.375
374 2 0.375 0.75 0.25
375 2 0.25 0.875 0.25
376 2 0.25 0.75 0.375
377 2 0.375 0.875 0.625
378 2 0.375 0.75 0.5
379 2 0.25 0.875 0.5
380 2 0.25 0.75 0.625
381 2 0.375 0.875 0.875
382 2 0.375 0.75 0.75
383 2 0.25 0.875 0.75
384 2 0.25 0.75 0.875
385 2 0.625 0.125 0.125
386 2 0.625 5.3057e-19 5.3492e-19
387 2 0.5 0.125 5.2798e-19
388 2 0.5 5.2636e-19 0.125
389 2 0.625 0.125 0.375
390 2 0.625 5.31279e-19 0.25
391 2 0.5 0.125 0.25
392 2 0.5 5.26803e-19 0.375
393 2 0.625 0.125 0.625
394 2 0.625 5.29726e-19 0.5
395 2 0.5 0.125 0.5
396 2 0.5 5.29144e-19 0.625
397 2 0.625 0.125 0.875
398 2 0.625 5.33536e-19 0.75
399 2 0.5 0.125 0.75
400 2 0.5 5.27334e-19 0.875
401 2 0.625 0.375 0.125
402 2 0.625 0.25 5.33385e-19
403 2 0.5 0.375 5.2826e-19
404 2 0.5 0.25 0.125
405 2 0.625 0.375 0.375
406 2 0.625 0.25 0.25
407 2 0.5 0.375 0.25
408 2 0.5 0.25 0.375
409 2 0.625 0.375 0.625
410 2 0.625 0.25 0.5
411 2 0.5 0.375 0.5
412 2 0.5 0.25 0.625
413 2 0.625 0.375 0.875
414 2 0.625 0.25 0.75
415 2 0.5 0.375 0.75
416 2 0.5 0.25 0.875
417 2 0.625 0.625 0.125
418 2 0.625 0.5 5.29616e-19
419 2 0.5 0.625 5.3036e-19
420 2 0.5 0.5 0.125
421 2 0.625 0.625 0.375
422 2 0.625 0.5 0.25
423 2 0.5 0.625 0.25
424 2 0.5 0.5 0.375
425 2 0.625 0.625 0.625
426 2 0.625 0.5 0.5
427 2 0.5 0.625 0.5
428 2 0.5 0.5 0.625
429 2 0.625 0.625 0.875
430 2 0.625 0.5 0.75
431 2 0.5 0.625 0.75
432 2 0.5 0.5 0.875
433 2 0.625 0.875 0.125
434 2 0.625 0.75 5.36512e-19
435 2 0.5 0.875 5.28799e-19
436 2 0.5 0.75 0.125
437 2 0.625 0.875 0.375
438 2 0.625 0.75 0.25
439 2 0.5 0.875 0.25
440 2 0.5 0.75 0.375
441 2 0.625 0.875 0.625
442 2 0.625 0.75 0.5
443 2 0.5 0.875 0.5
444 2 0.5 0.75 0.625
445 2 0.625 0.875 0.875
446 2 0.625 0.75 0.75
447 2 0.5 0.875 0.75
448 2 0.5 0.75 0.875
449 2 0.875 0.125 0.125
450 2 0.875 5.36556e-19 5.32251e-19
451 2 0.75 0.125 5.3188e-19
452 2 0.75 5.32397e-19 0.125
453 2 0.875 0.125 0.375
454 2 0.875 5.30824e-19 0.25
455 2 0.75 0.125 0.25
456 2 0.75 5.28937e-19 0.375
457 2 0.875 0.125 0.625
458 2 0.875 5.30169e-19 0.5
459 2 0.75 0.125 0.5
460 2 0.75 5.36851e-19 0.625
461 2 0.875 0.125 0.875
462 2 0.875 5.33025e-19 0.75
463 2 0.75 0.125 0.75
464 2 0.75 5.32689e-19 0.875
465 2 0.875 0.375 0.125
466 2 0.875 0.25 5.292e-19
467 2 0.75 0.375 5.29334e-19
468 2 0.75 0.25 0.125
469 2 0.875 0.375 0.375
470 2 0.875 0.25 0.25
471 2 0.75 0.375 0.25
472 2 0.75 0.25 0.375
473 2 0.875 0.375 0.625
474 2 0.875 0.25 0.5
475 2 0.75 0.375 0.5
476 2 0.75 0.25 0.625
477 2 0.875 0.375 0.875
478 2 0.875 0.25 0.75
479 2 0.75 0.375 0.75
480 2 0.75 0.25 0.875
481 2 0.875 0.625 0.125
482 2 0.875 0.5 5.27628e-19
483 2 0.75 0.625 5.34931e-19
484 2 0.75 0.5 0.125
485 2 0.875 0.625 0.375
486 2 0.875 0.5 0.25
487 2 0.75 0.625 0.25
488 2 0.75 0.5 0.375
489 2 0.875 0.625 0.625
490 2 0.875 0.5 0.5
491 2 0.75 0.625 0.5
492 2 0.75 0.5 0.625
493 2 0.875 0.625 0.875
494 2 0.875 0.5 0.75
495 2 0.75 0.625 0.75
496 2 0.75 0.5 0.875
497 2 0.875 0.875 0.125
498 2 0.875 0.75 5.2873e-19
499 2 0.75 0.875 5.32568e-19
500 2 0.75 0.75 0.125
501 2 0.875 0.875 0.375
502 2 0.875 0.75 0.25
503 2 0.75 0.875 0.25
504 2 0.75 0.75 0.375
505 2 0.875 0.875 0.625
506 2 0.875 0.75 0.5
507 2 0.75 0.875 0.5
508 2 0.75 0.75 0.625
509 2 0.875 0.875 0.875
510 2 0.875 0.75 0.75
511 2 0.75 0.875 0.75
512 2 0.75 0.75 0.875
