   2   2   1   0
  0.2285070E+02  0.4013114E-09  0.4013114E-09  0.4013114E-09  0.5000000E-15
  1.000000000000000E-004
  CAR 
 fcc Si                                  
     29.68246011    -10.81548990  301      3.80231602      1.00000000
    -10.815  0.0000E+00  0.0000E+00
    -10.680  0.0000E+00  0.0000E+00
    -10.546  0.0000E+00  0.0000E+00
    -10.411  0.0000E+00  0.0000E+00
    -10.276  0.0000E+00  0.0000E+00
    -10.141  0.0000E+00  0.0000E+00
    -10.006  0.0000E+00  0.0000E+00
     -9.871  0.0000E+00  0.0000E+00
     -9.736  0.0000E+00  0.0000E+00
     -9.601  0.0000E+00  0.0000E+00
     -9.466  0.4856E-12  0.6556E-13
     -9.331  0.6819E-07  0.9206E-08
     -9.196  0.2969E-03  0.4009E-04
     -9.061  0.4777E-01  0.6489E-02
     -8.926  0.4355E+00  0.6528E-01
     -8.791  0.5075E+00  0.1338E+00
     -8.656  0.3189E+00  0.1768E+00
     -8.521  0.2500E+00  0.2106E+00
     -8.386  0.2150E+00  0.2396E+00
     -8.251  0.1925E+00  0.2656E+00
     -8.116  0.1767E+00  0.2895E+00
     -7.981  0.1651E+00  0.3117E+00
     -7.846  0.1562E+00  0.3328E+00
     -7.711  0.1495E+00  0.3530E+00
     -7.576  0.1448E+00  0.3726E+00
     -7.441  0.1418E+00  0.3917E+00
     -7.306  0.1412E+00  0.4108E+00
     -7.171  0.1446E+00  0.4303E+00
     -7.036  0.1835E+00  0.4551E+00
     -6.901  0.6318E+00  0.5403E+00
     -6.766  0.9402E+00  0.6673E+00
     -6.631  0.6029E+00  0.7487E+00
     -6.496  0.4666E+00  0.8116E+00
     -6.361  0.4066E+00  0.8665E+00
     -6.226  0.3711E+00  0.9166E+00
     -6.091  0.3491E+00  0.9638E+00
     -5.956  0.3369E+00  0.1009E+01
     -5.821  0.3352E+00  0.1054E+01
     -5.686  0.4234E+00  0.1112E+01
     -5.551  0.1081E+01  0.1258E+01
     -5.416  0.1217E+01  0.1422E+01
     -5.281  0.9670E+00  0.1552E+01
     -5.146  0.1762E+01  0.1790E+01
     -5.011  0.3134E+01  0.2213E+01
     -4.876  0.1471E+01  0.2412E+01
     -4.741  0.8531E+00  0.2527E+01
     -4.606  0.1168E+01  0.2685E+01
     -4.471  0.1324E+01  0.2863E+01
     -4.336  0.5194E+00  0.2933E+01
     -4.201  0.3579E+00  0.2982E+01
     -4.066  0.4056E+00  0.3037E+01
     -3.931  0.6888E+00  0.3130E+01
     -3.796  0.1822E+01  0.3375E+01
     -3.661  0.9092E+00  0.3498E+01
     -3.526  0.1342E+00  0.3516E+01
     -3.391  0.9862E-01  0.3530E+01
     -3.256  0.9573E-01  0.3543E+01
     -3.121  0.8669E-01  0.3554E+01
     -2.986  0.8488E-01  0.3566E+01
     -2.851  0.8443E-01  0.3577E+01
     -2.716  0.7759E-01  0.3588E+01
     -2.581  0.7969E-01  0.3598E+01
     -2.446  0.7556E-01  0.3609E+01
     -2.311  0.7447E-01  0.3619E+01
     -2.176  0.7558E-01  0.3629E+01
     -2.041  0.6794E-01  0.3638E+01
     -1.906  0.7536E-01  0.3648E+01
     -1.771  0.6821E-01  0.3657E+01
     -1.636  0.6638E-01  0.3666E+01
     -1.501  0.7452E-01  0.3676E+01
     -1.366  0.5963E-01  0.3684E+01
     -1.231  0.7210E-01  0.3694E+01
     -1.096  0.6462E-01  0.3703E+01
     -0.961  0.6137E-01  0.3711E+01
     -0.826  0.7738E-01  0.3722E+01
     -0.691  0.2521E+00  0.3756E+01
     -0.556  0.1410E+01  0.3946E+01
     -0.421  0.1884E+01  0.4200E+01
     -0.286  0.1411E+01  0.4391E+01
     -0.151  0.1373E+01  0.4576E+01
     -0.016  0.1517E+01  0.4781E+01
      0.119  0.1175E+01  0.4940E+01
      0.254  0.1005E+01  0.5075E+01
      0.389  0.9778E+00  0.5207E+01
      0.524  0.9977E+00  0.5342E+01
      0.659  0.1488E+01  0.5543E+01
      0.794  0.1770E+01  0.5782E+01
      0.929  0.1198E+01  0.5943E+01
      1.064  0.1138E+01  0.6097E+01
      1.199  0.1142E+01  0.6251E+01
      1.334  0.8246E+00  0.6362E+01
      1.469  0.7093E+00  0.6458E+01
      1.604  0.6866E+00  0.6551E+01
      1.739  0.6527E+00  0.6639E+01
      1.874  0.6736E+00  0.6730E+01
      2.009  0.6731E+00  0.6821E+01
      2.144  0.7584E+00  0.6923E+01
      2.279  0.1054E+01  0.7065E+01
      2.414  0.1388E+01  0.7253E+01
      2.549  0.7170E+00  0.7350E+01
      2.684  0.4920E+00  0.7416E+01
      2.819  0.4385E+00  0.7475E+01
      2.954  0.4191E+00  0.7532E+01
      3.089  0.4102E+00  0.7587E+01
      3.224  0.4128E+00  0.7643E+01
      3.359  0.4323E+00  0.7701E+01
      3.494  0.4789E+00  0.7766E+01
      3.629  0.6201E+00  0.7850E+01
      3.764  0.9117E+00  0.7973E+01
      3.899  0.5995E+00  0.8054E+01
      4.034  0.5755E+00  0.8131E+01
      4.169  0.3995E+00  0.8185E+01
      4.304  0.5207E+00  0.8255E+01
      4.439  0.9049E+00  0.8378E+01
      4.574  0.1563E+01  0.8589E+01
      4.709  0.1330E+01  0.8768E+01
      4.844  0.1145E+01  0.8923E+01
      4.979  0.1329E+01  0.9102E+01
      5.114  0.1197E+01  0.9264E+01
      5.249  0.1161E+01  0.9420E+01
      5.384  0.1184E+01  0.9580E+01
      5.519  0.7700E+00  0.9684E+01
      5.654  0.6667E+00  0.9774E+01
      5.789  0.6553E+00  0.9863E+01
      5.924  0.4580E+00  0.9925E+01
      6.059  0.4213E+00  0.9981E+01
      6.194  0.6035E+00  0.1006E+02
      6.329  0.1267E+01  0.1023E+02
      6.464  0.1099E+01  0.1038E+02
      6.599  0.8922E+00  0.1050E+02
      6.734  0.7443E+00  0.1060E+02
      6.869  0.6358E+00  0.1069E+02
      7.004  0.6412E+00  0.1078E+02
      7.139  0.8715E+00  0.1089E+02
      7.274  0.1218E+01  0.1106E+02
      7.409  0.2088E+01  0.1134E+02
      7.544  0.2317E+01  0.1165E+02
      7.679  0.1128E+01  0.1180E+02
      7.814  0.1605E+01  0.1202E+02
      7.949  0.2018E+01  0.1229E+02
      8.084  0.1636E+01  0.1251E+02
      8.219  0.7215E+00  0.1261E+02
      8.354  0.5720E+00  0.1269E+02
      8.489  0.1003E+01  0.1282E+02
      8.624  0.1029E+01  0.1296E+02
      8.759  0.9619E+00  0.1309E+02
      8.894  0.1104E+01  0.1324E+02
      9.029  0.9457E+00  0.1337E+02
      9.163  0.7058E+00  0.1347E+02
      9.298  0.6951E+00  0.1356E+02
      9.433  0.6955E+00  0.1365E+02
      9.568  0.7315E+00  0.1375E+02
      9.703  0.9029E+00  0.1387E+02
      9.838  0.8956E+00  0.1399E+02
      9.973  0.8112E+00  0.1410E+02
     10.108  0.7744E+00  0.1421E+02
     10.243  0.9425E+00  0.1434E+02
     10.378  0.9298E+00  0.1446E+02
     10.513  0.9654E+00  0.1459E+02
     10.648  0.9711E+00  0.1472E+02
     10.783  0.1229E+01  0.1489E+02
     10.918  0.1939E+01  0.1515E+02
     11.053  0.1694E+01  0.1538E+02
     11.188  0.1189E+01  0.1554E+02
     11.323  0.1049E+01  0.1568E+02
     11.458  0.7074E+00  0.1578E+02
     11.593  0.7054E+00  0.1587E+02
     11.728  0.1014E+01  0.1601E+02
     11.863  0.1477E+01  0.1621E+02
     11.998  0.1429E+01  0.1640E+02
     12.133  0.1221E+01  0.1657E+02
     12.268  0.1197E+01  0.1673E+02
     12.403  0.1202E+01  0.1689E+02
     12.538  0.1153E+01  0.1705E+02
     12.673  0.1157E+01  0.1720E+02
     12.808  0.1145E+01  0.1736E+02
     12.943  0.1392E+01  0.1754E+02
     13.078  0.1602E+01  0.1776E+02
     13.213  0.1789E+01  0.1800E+02
     13.348  0.1307E+01  0.1818E+02
     13.483  0.1243E+01  0.1835E+02
     13.618  0.1196E+01  0.1851E+02
     13.753  0.1208E+01  0.1867E+02
     13.888  0.1341E+01  0.1885E+02
     14.023  0.1389E+01  0.1904E+02
     14.158  0.1333E+01  0.1922E+02
     14.293  0.1335E+01  0.1940E+02
     14.428  0.1623E+01  0.1962E+02
     14.563  0.2367E+01  0.1994E+02
     14.698  0.2946E+01  0.2034E+02
     14.833  0.2495E+01  0.2067E+02
     14.968  0.1752E+01  0.2091E+02
     15.103  0.1229E+01  0.2107E+02
     15.238  0.1329E+01  0.2125E+02
     15.373  0.1466E+01  0.2145E+02
     15.508  0.1204E+01  0.2161E+02
     15.643  0.9093E+00  0.2174E+02
     15.778  0.1025E+01  0.2188E+02
     15.913  0.1295E+01  0.2205E+02
     16.048  0.1197E+01  0.2221E+02
     16.183  0.1752E+01  0.2245E+02
     16.318  0.2664E+01  0.2281E+02
     16.453  0.2783E+01  0.2318E+02
     16.588  0.2034E+01  0.2346E+02
     16.723  0.1311E+01  0.2364E+02
     16.858  0.1244E+01  0.2380E+02
     16.993  0.1331E+01  0.2398E+02
     17.128  0.1853E+01  0.2423E+02
     17.263  0.2100E+01  0.2452E+02
     17.398  0.1491E+01  0.2472E+02
     17.533  0.1217E+01  0.2488E+02
     17.668  0.1202E+01  0.2504E+02
     17.803  0.1114E+01  0.2519E+02
     17.938  0.1038E+01  0.2534E+02
     18.073  0.1066E+01  0.2548E+02
     18.208  0.1134E+01  0.2563E+02
     18.343  0.1259E+01  0.2580E+02
     18.478  0.1119E+01  0.2595E+02
     18.613  0.8168E+00  0.2606E+02
     18.748  0.8603E+00  0.2618E+02
     18.883  0.7883E+00  0.2629E+02
     19.018  0.9590E+00  0.2642E+02
     19.153  0.1691E+01  0.2664E+02
     19.288  0.2055E+01  0.2692E+02
     19.423  0.2537E+01  0.2726E+02
     19.558  0.1415E+01  0.2745E+02
     19.693  0.1104E+01  0.2760E+02
     19.828  0.1102E+01  0.2775E+02
     19.963  0.1753E+01  0.2799E+02
     20.098  0.1899E+01  0.2825E+02
     20.233  0.1374E+01  0.2843E+02
     20.368  0.1162E+01  0.2859E+02
     20.503  0.1046E+01  0.2873E+02
     20.638  0.1720E+01  0.2896E+02
     20.773  0.2566E+01  0.2931E+02
     20.908  0.2038E+01  0.2958E+02
     21.043  0.1659E+01  0.2981E+02
     21.178  0.1599E+01  0.3002E+02
     21.313  0.1572E+01  0.3023E+02
     21.448  0.1199E+01  0.3040E+02
     21.583  0.1152E+01  0.3055E+02
     21.718  0.1018E+01  0.3069E+02
     21.853  0.9675E+00  0.3082E+02
     21.988  0.8591E+00  0.3094E+02
     22.123  0.8518E+00  0.3105E+02
     22.258  0.1150E+01  0.3121E+02
     22.393  0.8817E+00  0.3133E+02
     22.528  0.4775E+00  0.3139E+02
     22.663  0.4381E+00  0.3145E+02
     22.798  0.3658E+00  0.3150E+02
     22.933  0.4322E+00  0.3156E+02
     23.068  0.3420E+00  0.3160E+02
     23.203  0.2861E+00  0.3164E+02
     23.338  0.4122E+00  0.3170E+02
     23.473  0.5664E+00  0.3177E+02
     23.608  0.2604E+00  0.3181E+02
     23.743  0.7691E-01  0.3182E+02
     23.878  0.4134E-01  0.3182E+02
     24.013  0.7770E-01  0.3183E+02
     24.148  0.6683E-01  0.3184E+02
     24.283  0.1289E-01  0.3185E+02
     24.418  0.4002E-01  0.3185E+02
     24.553  0.3459E-01  0.3186E+02
     24.688  0.3564E-01  0.3186E+02
     24.823  0.5084E-01  0.3187E+02
     24.958  0.1872E-01  0.3187E+02
     25.093  0.2110E-01  0.3187E+02
     25.228  0.7008E-01  0.3188E+02
     25.363  0.2065E-01  0.3189E+02
     25.498  0.2444E-01  0.3189E+02
     25.633  0.4646E-01  0.3189E+02
     25.768  0.3185E-01  0.3190E+02
     25.903  0.4476E-01  0.3190E+02
     26.038  0.3486E-01  0.3191E+02
     26.173  0.1273E-01  0.3191E+02
     26.308  0.6995E-01  0.3192E+02
     26.443  0.3043E-01  0.3192E+02
     26.578  0.1925E-01  0.3193E+02
     26.713  0.5122E-01  0.3193E+02
     26.848  0.4309E-01  0.3194E+02
     26.983  0.4213E-01  0.3195E+02
     27.118  0.3213E-01  0.3195E+02
     27.253  0.3953E-01  0.3196E+02
     27.388  0.5304E-01  0.3196E+02
     27.523  0.4265E-01  0.3197E+02
     27.658  0.3992E-01  0.3197E+02
     27.793  0.9539E-01  0.3199E+02
     27.928  0.8488E-01  0.3200E+02
     28.063  0.1247E-01  0.3200E+02
     28.198  0.9810E-04  0.3200E+02
     28.333  0.2636E-07  0.3200E+02
     28.468  0.2096E-12  0.3200E+02
     28.603  0.0000E+00  0.3200E+02
     28.738  0.0000E+00  0.3200E+02
     28.873  0.0000E+00  0.3200E+02
     29.007  0.0000E+00  0.3200E+02
     29.142  0.0000E+00  0.3200E+02
     29.277  0.0000E+00  0.3200E+02
     29.412  0.0000E+00  0.3200E+02
     29.547  0.0000E+00  0.3200E+02
     29.682  0.0000E+00  0.3200E+02
     29.68246011    -10.81548990  301      3.80231602      1.00000000
    -10.815  0.0000E+00  0.0000E+00  0.0000E+00  0.0000E+00  0.0000E+00  0.0000E+00  0.0000E+00  0.0000E+00  0.0000E+00
    -10.680  0.0000E+00  0.0000E+00  0.0000E+00  0.0000E+00  0.0000E+00  0.0000E+00  0.0000E+00  0.0000E+00  0.0000E+00
    -10.546  0.0000E+00  0.0000E+00  0.0000E+00  0.0000E+00  0.0000E+00  0.0000E+00  0.0000E+00  0.0000E+00  0.0000E+00
    -10.411  0.0000E+00  0.0000E+00  0.0000E+00  0.0000E+00  0.0000E+00  0.0000E+00  0.0000E+00  0.0000E+00  0.0000E+00
    -10.276  0.0000E+00  0.0000E+00  0.0000E+00  0.0000E+00  0.0000E+00  0.0000E+00  0.0000E+00  0.0000E+00  0.0000E+00
    -10.141  0.0000E+00  0.0000E+00  0.0000E+00  0.0000E+00  0.0000E+00  0.0000E+00  0.0000E+00  0.0000E+00  0.0000E+00
    -10.006  0.0000E+00  0.0000E+00  0.0000E+00  0.0000E+00  0.0000E+00  0.0000E+00  0.0000E+00  0.0000E+00  0.0000E+00
     -9.871  0.0000E+00  0.0000E+00  0.0000E+00  0.0000E+00  0.0000E+00  0.0000E+00  0.0000E+00  0.0000E+00  0.0000E+00
     -9.736  0.0000E+00  0.0000E+00  0.0000E+00  0.0000E+00  0.0000E+00  0.0000E+00  0.0000E+00  0.0000E+00  0.0000E+00
     -9.601  0.0000E+00  0.0000E+00  0.0000E+00  0.0000E+00  0.0000E+00  0.0000E+00  0.0000E+00  0.0000E+00  0.0000E+00
     -9.466  0.1503E-12  0.9096E-17  0.9096E-17  0.9096E-17  0.4651E-18  0.4651E-18  0.3183E-21  0.4651E-18  0.3183E-21
     -9.331  0.2110E-07  0.1750E-11  0.1750E-11  0.1750E-11  0.8965E-13  0.8965E-13  0.8014E-16  0.8965E-13  0.8014E-16
     -9.196  0.9186E-04  0.1152E-07  0.1152E-07  0.1152E-07  0.5921E-09  0.5921E-09  0.7459E-12  0.5921E-09  0.7459E-12
     -9.061  0.1478E-01  0.3283E-05  0.3283E-05  0.3283E-05  0.1699E-06  0.1699E-06  0.3363E-09  0.1699E-06  0.3363E-09
     -8.926  0.1347E+00  0.6744E-04  0.6744E-04  0.6744E-04  0.3540E-05  0.3540E-05  0.1238E-07  0.3540E-05  0.1238E-07
     -8.791  0.1567E+00  0.2347E-03  0.2347E-03  0.2347E-03  0.1263E-04  0.1263E-04  0.8136E-07  0.1263E-04  0.8136E-07
     -8.656  0.9816E-01  0.3654E-03  0.3654E-03  0.3654E-03  0.2037E-04  0.2037E-04  0.2164E-06  0.2037E-04  0.2164E-06
     -8.521  0.7673E-01  0.4554E-03  0.4554E-03  0.4554E-03  0.2657E-04  0.2657E-04  0.3976E-06  0.2657E-04  0.3976E-06
     -8.386  0.6579E-01  0.5278E-03  0.5278E-03  0.5278E-03  0.3231E-04  0.3231E-04  0.6099E-06  0.3231E-04  0.6099E-06
     -8.251  0.5878E-01  0.5901E-03  0.5901E-03  0.5901E-03  0.3794E-04  0.3794E-04  0.8421E-06  0.3794E-04  0.8421E-06
     -8.116  0.5384E-01  0.6456E-03  0.6456E-03  0.6456E-03  0.4366E-04  0.4366E-04  0.1087E-05  0.4366E-04  0.1087E-05
     -7.981  0.5020E-01  0.6964E-03  0.6964E-03  0.6964E-03  0.4959E-04  0.4959E-04  0.1342E-05  0.4959E-04  0.1342E-05
     -7.846  0.4744E-01  0.7438E-03  0.7438E-03  0.7438E-03  0.5584E-04  0.5584E-04  0.1605E-05  0.5584E-04  0.1605E-05
     -7.711  0.4539E-01  0.7901E-03  0.7901E-03  0.7901E-03  0.6262E-04  0.6262E-04  0.1871E-05  0.6262E-04  0.1871E-05
     -7.576  0.4393E-01  0.8352E-03  0.8352E-03  0.8352E-03  0.7024E-04  0.7024E-04  0.2135E-05  0.7024E-04  0.2135E-05
     -7.441  0.4305E-01  0.8816E-03  0.8816E-03  0.8816E-03  0.7910E-04  0.7910E-04  0.2384E-05  0.7910E-04  0.2384E-05
     -7.306  0.4293E-01  0.9340E-03  0.9340E-03  0.9340E-03  0.9016E-04  0.9016E-04  0.2638E-05  0.9016E-04  0.2638E-05
     -7.171  0.4408E-01  0.1001E-02  0.1001E-02  0.1001E-02  0.1058E-03  0.1058E-03  0.2894E-05  0.1058E-03  0.2894E-05
     -7.036  0.5655E-01  0.1270E-02  0.1270E-02  0.1270E-02  0.1650E-03  0.1650E-03  0.3146E-05  0.1650E-03  0.3146E-05
     -6.901  0.1988E+00  0.3968E-02  0.3968E-02  0.3968E-02  0.7242E-03  0.7242E-03  0.3480E-05  0.7242E-03  0.3480E-05
     -6.766  0.2962E+00  0.6065E-02  0.6065E-02  0.6065E-02  0.1118E-02  0.1118E-02  0.4151E-05  0.1118E-02  0.4151E-05
     -6.631  0.1886E+00  0.4410E-02  0.4410E-02  0.4410E-02  0.7236E-03  0.7236E-03  0.4962E-05  0.7236E-03  0.4962E-05
     -6.496  0.1450E+00  0.3834E-02  0.3834E-02  0.3834E-02  0.5704E-03  0.5704E-03  0.5780E-05  0.5704E-03  0.5780E-05
     -6.361  0.1256E+00  0.3666E-02  0.3666E-02  0.3666E-02  0.5092E-03  0.5092E-03  0.6630E-05  0.5092E-03  0.6630E-05
     -6.226  0.1141E+00  0.3629E-02  0.3629E-02  0.3629E-02  0.4781E-03  0.4781E-03  0.7546E-05  0.4781E-03  0.7546E-05
     -6.091  0.1069E+00  0.3670E-02  0.3670E-02  0.3670E-02  0.4640E-03  0.4640E-03  0.8588E-05  0.4640E-03  0.8588E-05
     -5.956  0.1027E+00  0.3778E-02  0.3778E-02  0.3778E-02  0.4630E-03  0.4630E-03  0.9809E-05  0.4630E-03  0.9809E-05
     -5.821  0.1018E+00  0.3984E-02  0.3984E-02  0.3984E-02  0.4775E-03  0.4775E-03  0.1130E-04  0.4775E-03  0.1130E-04
     -5.686  0.1282E+00  0.5347E-02  0.5347E-02  0.5347E-02  0.6329E-03  0.6329E-03  0.1644E-04  0.6329E-03  0.1644E-04
     -5.551  0.3268E+00  0.1426E-01  0.1426E-01  0.1426E-01  0.1686E-02  0.1686E-02  0.4498E-04  0.1686E-02  0.4498E-04
     -5.416  0.3665E+00  0.1668E-01  0.1668E-01  0.1668E-01  0.1924E-02  0.1924E-02  0.5776E-04  0.1924E-02  0.5776E-04
     -5.281  0.2879E+00  0.1430E-01  0.1430E-01  0.1430E-01  0.1539E-02  0.1539E-02  0.7090E-04  0.1539E-02  0.7090E-04
     -5.146  0.5121E+00  0.2914E-01  0.2914E-01  0.2914E-01  0.2689E-02  0.2689E-02  0.2703E-03  0.2689E-02  0.2703E-03
     -5.011  0.9065E+00  0.5344E-01  0.5344E-01  0.5344E-01  0.4850E-02  0.4850E-02  0.4823E-03  0.4850E-02  0.4823E-03
     -4.876  0.4259E+00  0.2549E-01  0.2549E-01  0.2549E-01  0.2389E-02  0.2389E-02  0.1739E-03  0.2389E-02  0.1739E-03
     -4.741  0.2441E+00  0.1583E-01  0.1583E-01  0.1583E-01  0.1435E-02  0.1435E-02  0.9588E-04  0.1435E-02  0.9588E-04
     -4.606  0.3286E+00  0.2319E-01  0.2319E-01  0.2319E-01  0.1971E-02  0.1971E-02  0.1482E-03  0.1971E-02  0.1482E-03
     -4.471  0.3672E+00  0.2750E-01  0.2750E-01  0.2750E-01  0.2205E-02  0.2205E-02  0.1952E-03  0.2205E-02  0.1952E-03
     -4.336  0.1427E+00  0.1119E-01  0.1119E-01  0.1119E-01  0.8789E-03  0.8789E-03  0.7609E-04  0.8789E-03  0.7609E-04
     -4.201  0.9644E-01  0.8213E-02  0.8213E-02  0.8213E-02  0.6193E-03  0.6193E-03  0.4608E-04  0.6193E-03  0.4608E-04
     -4.066  0.1060E+00  0.1000E-01  0.1000E-01  0.1000E-01  0.6871E-03  0.6871E-03  0.4713E-04  0.6871E-03  0.4713E-04
     -3.931  0.1613E+00  0.2025E-01  0.2025E-01  0.2025E-01  0.9469E-03  0.9469E-03  0.5678E-04  0.9469E-03  0.5678E-04
     -3.796  0.3671E+00  0.6327E-01  0.6327E-01  0.6327E-01  0.1683E-02  0.1683E-02  0.7564E-04  0.1683E-02  0.7564E-04
     -3.661  0.1786E+00  0.3235E-01  0.3235E-01  0.3235E-01  0.7870E-03  0.7870E-03  0.3398E-04  0.7870E-03  0.3398E-04
     -3.526  0.2940E-01  0.4372E-02  0.4372E-02  0.4372E-02  0.1841E-03  0.1841E-03  0.1109E-04  0.1841E-03  0.1109E-04
     -3.391  0.2255E-01  0.3117E-02  0.3117E-02  0.3117E-02  0.1634E-03  0.1634E-03  0.9799E-05  0.1634E-03  0.9799E-05
     -3.256  0.2223E-01  0.3011E-02  0.3011E-02  0.3011E-02  0.1742E-03  0.1742E-03  0.1083E-04  0.1742E-03  0.1083E-04
     -3.121  0.2002E-01  0.2779E-02  0.2779E-02  0.2779E-02  0.1658E-03  0.1658E-03  0.9073E-05  0.1658E-03  0.9073E-05
     -2.986  0.1970E-01  0.2735E-02  0.2735E-02  0.2735E-02  0.1721E-03  0.1721E-03  0.9434E-05  0.1721E-03  0.9434E-05
     -2.851  0.1969E-01  0.2742E-02  0.2742E-02  0.2742E-02  0.1820E-03  0.1820E-03  0.9934E-05  0.1820E-03  0.9934E-05
     -2.716  0.1794E-01  0.2574E-02  0.2574E-02  0.2574E-02  0.1734E-03  0.1734E-03  0.8072E-05  0.1734E-03  0.8072E-05
     -2.581  0.1858E-01  0.2649E-02  0.2649E-02  0.2649E-02  0.1881E-03  0.1881E-03  0.9643E-05  0.1881E-03  0.9643E-05
     -2.446  0.1742E-01  0.2574E-02  0.2574E-02  0.2574E-02  0.1844E-03  0.1844E-03  0.8495E-05  0.1844E-03  0.8495E-05
     -2.311  0.1714E-01  0.2566E-02  0.2566E-02  0.2566E-02  0.1889E-03  0.1889E-03  0.8029E-05  0.1889E-03  0.8029E-05
     -2.176  0.1758E-01  0.2609E-02  0.2609E-02  0.2609E-02  0.2026E-03  0.2026E-03  0.9418E-05  0.2026E-03  0.9418E-05
     -2.041  0.1545E-01  0.2424E-02  0.2424E-02  0.2424E-02  0.1846E-03  0.1846E-03  0.7105E-05  0.1846E-03  0.7105E-05
     -1.906  0.1732E-01  0.2687E-02  0.2687E-02  0.2687E-02  0.2146E-03  0.2146E-03  0.8810E-05  0.2146E-03  0.8810E-05
     -1.771  0.1565E-01  0.2470E-02  0.2470E-02  0.2470E-02  0.2023E-03  0.2023E-03  0.7639E-05  0.2023E-03  0.7639E-05
     -1.636  0.1502E-01  0.2453E-02  0.2453E-02  0.2453E-02  0.1997E-03  0.1997E-03  0.7112E-05  0.1997E-03  0.7112E-05
     -1.501  0.1703E-01  0.2762E-02  0.2762E-02  0.2762E-02  0.2356E-03  0.2356E-03  0.8516E-05  0.2356E-03  0.8516E-05
     -1.366  0.1346E-01  0.2258E-02  0.2258E-02  0.2258E-02  0.1927E-03  0.1927E-03  0.6192E-05  0.1927E-03  0.6192E-05
     -1.231  0.1629E-01  0.2751E-02  0.2751E-02  0.2751E-02  0.2393E-03  0.2393E-03  0.8183E-05  0.2393E-03  0.8183E-05
     -1.096  0.1455E-01  0.2506E-02  0.2506E-02  0.2506E-02  0.2229E-03  0.2229E-03  0.6578E-05  0.2229E-03  0.6578E-05
     -0.961  0.1376E-01  0.2399E-02  0.2399E-02  0.2399E-02  0.2149E-03  0.2149E-03  0.6833E-05  0.2149E-03  0.6833E-05
     -0.826  0.1627E-01  0.3230E-02  0.3230E-02  0.3230E-02  0.2651E-03  0.2651E-03  0.1493E-04  0.2651E-03  0.1493E-04
     -0.691  0.1228E-01  0.1696E-01  0.1696E-01  0.1696E-01  0.2323E-03  0.2323E-03  0.3293E-03  0.2323E-03  0.3293E-03
     -0.556  0.1865E-01  0.1032E+00  0.1032E+00  0.1032E+00  0.5180E-03  0.5180E-03  0.2215E-02  0.5180E-03  0.2215E-02
     -0.421  0.1649E-01  0.1401E+00  0.1401E+00  0.1401E+00  0.6560E-03  0.6560E-03  0.3078E-02  0.6560E-03  0.3078E-02
     -0.286  0.2079E-01  0.1046E+00  0.1046E+00  0.1046E+00  0.7799E-03  0.7799E-03  0.2317E-02  0.7799E-03  0.2317E-02
     -0.151  0.1939E-01  0.1035E+00  0.1035E+00  0.1035E+00  0.8918E-03  0.8918E-03  0.2348E-02  0.8918E-03  0.2348E-02
     -0.016  0.1917E-01  0.1160E+00  0.1160E+00  0.1160E+00  0.1059E-02  0.1059E-02  0.2614E-02  0.1059E-02  0.2614E-02
      0.119  0.2180E-01  0.9000E-01  0.9000E-01  0.9000E-01  0.1091E-02  0.1091E-02  0.1846E-02  0.1091E-02  0.1846E-02
      0.254  0.1834E-01  0.7839E-01  0.7839E-01  0.7839E-01  0.1055E-02  0.1055E-02  0.1449E-02  0.1055E-02  0.1449E-02
      0.389  0.2282E-01  0.7688E-01  0.7688E-01  0.7688E-01  0.1224E-02  0.1224E-02  0.1224E-02  0.1224E-02  0.1224E-02
      0.524  0.1807E-01  0.8142E-01  0.8142E-01  0.8142E-01  0.1265E-02  0.1265E-02  0.1041E-02  0.1265E-02  0.1041E-02
      0.659  0.2203E-01  0.1275E+00  0.1275E+00  0.1275E+00  0.1902E-02  0.1902E-02  0.8698E-03  0.1902E-02  0.8698E-03
      0.794  0.1816E-01  0.1560E+00  0.1560E+00  0.1560E+00  0.2254E-02  0.2254E-02  0.7684E-03  0.2254E-02  0.7684E-03
      0.929  0.2015E-01  0.1039E+00  0.1039E+00  0.1039E+00  0.1900E-02  0.1900E-02  0.7984E-03  0.1900E-02  0.7984E-03
      1.064  0.1886E-01  0.9949E-01  0.9949E-01  0.9949E-01  0.1991E-02  0.1991E-02  0.9351E-03  0.1991E-02  0.9351E-03
      1.199  0.1809E-01  0.1009E+00  0.1009E+00  0.1009E+00  0.2130E-02  0.2130E-02  0.9921E-03  0.2130E-02  0.9921E-03
      1.334  0.1933E-01  0.7166E-01  0.7166E-01  0.7166E-01  0.1862E-02  0.1862E-02  0.7586E-03  0.1862E-02  0.7586E-03
      1.469  0.1649E-01  0.6196E-01  0.6196E-01  0.6196E-01  0.1787E-02  0.1787E-02  0.7118E-03  0.1787E-02  0.7118E-03
      1.604  0.1955E-01  0.5961E-01  0.5961E-01  0.5961E-01  0.1931E-02  0.1931E-02  0.7097E-03  0.1931E-02  0.7097E-03
      1.739  0.1537E-01  0.5781E-01  0.5781E-01  0.5781E-01  0.1947E-02  0.1947E-02  0.7137E-03  0.1947E-02  0.7137E-03
      1.874  0.1905E-01  0.5949E-01  0.5949E-01  0.5949E-01  0.2197E-02  0.2197E-02  0.7283E-03  0.2197E-02  0.7283E-03
      2.009  0.1444E-01  0.6114E-01  0.6114E-01  0.6114E-01  0.2290E-02  0.2290E-02  0.7554E-03  0.2290E-02  0.7554E-03
      2.144  0.1764E-01  0.6950E-01  0.6950E-01  0.6950E-01  0.2747E-02  0.2747E-02  0.8287E-03  0.2747E-02  0.8287E-03
      2.279  0.1311E-01  0.1012E+00  0.1012E+00  0.1012E+00  0.3897E-02  0.3897E-02  0.1174E-02  0.3897E-02  0.1174E-02
      2.414  0.1454E-01  0.1353E+00  0.1353E+00  0.1353E+00  0.5324E-02  0.5324E-02  0.1494E-02  0.5324E-02  0.1494E-02
      2.549  0.1149E-01  0.6869E-01  0.6869E-01  0.6869E-01  0.3179E-02  0.3179E-02  0.6676E-03  0.3179E-02  0.6676E-03
      2.684  0.1316E-01  0.4560E-01  0.4560E-01  0.4560E-01  0.2588E-02  0.2588E-02  0.3633E-03  0.2588E-02  0.3633E-03
      2.819  0.1223E-01  0.4049E-01  0.4049E-01  0.4049E-01  0.2545E-02  0.2545E-02  0.2860E-03  0.2545E-02  0.2860E-03
      2.954  0.1266E-01  0.3854E-01  0.3854E-01  0.3854E-01  0.2640E-02  0.2640E-02  0.2394E-03  0.2640E-02  0.2394E-03
      3.089  0.1287E-01  0.3775E-01  0.3775E-01  0.3775E-01  0.2779E-02  0.2779E-02  0.2052E-03  0.2779E-02  0.2052E-03
      3.224  0.1272E-01  0.3823E-01  0.3823E-01  0.3823E-01  0.2997E-02  0.2997E-02  0.1773E-03  0.2997E-02  0.1773E-03
      3.359  0.1308E-01  0.4033E-01  0.4033E-01  0.4033E-01  0.3357E-02  0.3357E-02  0.1522E-03  0.3357E-02  0.1522E-03
      3.494  0.1403E-01  0.4509E-01  0.4509E-01  0.4509E-01  0.3979E-02  0.3979E-02  0.1252E-03  0.3979E-02  0.1252E-03
      3.629  0.1563E-01  0.5947E-01  0.5947E-01  0.5947E-01  0.5588E-02  0.5588E-02  0.9257E-04  0.5588E-02  0.9257E-04
      3.764  0.3389E-01  0.8500E-01  0.8500E-01  0.8500E-01  0.8452E-02  0.8452E-02  0.4355E-04  0.8452E-02  0.4355E-04
      3.899  0.7092E-01  0.3630E-01  0.3630E-01  0.3630E-01  0.5081E-02  0.5081E-02  0.6734E-05  0.5081E-02  0.6734E-05
      4.034  0.1174E+00  0.1556E-01  0.1556E-01  0.1556E-01  0.4187E-02  0.4187E-02  0.7205E-05  0.4187E-02  0.7205E-05
      4.169  0.7854E-01  0.1188E-01  0.1188E-01  0.1188E-01  0.2793E-02  0.2793E-02  0.9545E-04  0.2793E-02  0.9545E-04
      4.304  0.7708E-01  0.1667E-01  0.1667E-01  0.1667E-01  0.3834E-02  0.3834E-02  0.1464E-02  0.3834E-02  0.1464E-02
      4.439  0.9531E-01  0.2706E-01  0.2706E-01  0.2706E-01  0.6928E-02  0.6928E-02  0.5522E-02  0.6928E-02  0.5522E-02
      4.574  0.1363E+00  0.4438E-01  0.4438E-01  0.4438E-01  0.1181E-01  0.1181E-01  0.1280E-01  0.1181E-01  0.1280E-01
      4.709  0.1299E+00  0.4100E-01  0.4100E-01  0.4100E-01  0.9650E-02  0.9650E-02  0.9714E-02  0.9650E-02  0.9714E-02
      4.844  0.1085E+00  0.3677E-01  0.3677E-01  0.3677E-01  0.8390E-02  0.8390E-02  0.8434E-02  0.8390E-02  0.8434E-02
      4.979  0.1059E+00  0.4183E-01  0.4183E-01  0.4183E-01  0.1020E-01  0.1020E-01  0.1131E-01  0.1020E-01  0.1131E-01
      5.114  0.9721E-01  0.3973E-01  0.3973E-01  0.3973E-01  0.9176E-02  0.9176E-02  0.9749E-02  0.9176E-02  0.9749E-02
      5.249  0.1002E+00  0.4150E-01  0.4150E-01  0.4150E-01  0.8813E-02  0.8813E-02  0.8671E-02  0.8813E-02  0.8671E-02
      5.384  0.1054E+00  0.4445E-01  0.4445E-01  0.4445E-01  0.8950E-02  0.8950E-02  0.8313E-02  0.8950E-02  0.8313E-02
      5.519  0.6703E-01  0.3023E-01  0.3023E-01  0.3023E-01  0.5795E-02  0.5795E-02  0.5281E-02  0.5795E-02  0.5281E-02
      5.654  0.5892E-01  0.2772E-01  0.2772E-01  0.2772E-01  0.4979E-02  0.4979E-02  0.4241E-02  0.4979E-02  0.4241E-02
      5.789  0.5737E-01  0.2807E-01  0.2807E-01  0.2807E-01  0.4952E-02  0.4952E-02  0.4039E-02  0.4952E-02  0.4039E-02
      5.924  0.3264E-01  0.1981E-01  0.1981E-01  0.1981E-01  0.3661E-02  0.3661E-02  0.3369E-02  0.3661E-02  0.3369E-02
      6.059  0.2688E-01  0.1898E-01  0.1898E-01  0.1898E-01  0.3472E-02  0.3472E-02  0.3189E-02  0.3472E-02  0.3189E-02
      6.194  0.2643E-01  0.3238E-01  0.3238E-01  0.3238E-01  0.5986E-02  0.5986E-02  0.3167E-02  0.5986E-02  0.3167E-02
      6.329  0.2725E-01  0.7943E-01  0.7943E-01  0.7943E-01  0.1512E-01  0.1512E-01  0.3222E-02  0.1512E-01  0.3222E-02
      6.464  0.3031E-01  0.6802E-01  0.6802E-01  0.6802E-01  0.1265E-01  0.1265E-01  0.3434E-02  0.1265E-01  0.3434E-02
      6.599  0.3609E-01  0.5354E-01  0.5354E-01  0.5354E-01  0.9286E-02  0.9286E-02  0.3858E-02  0.9286E-02  0.3858E-02
      6.734  0.2752E-01  0.4464E-01  0.4464E-01  0.4464E-01  0.8211E-02  0.8211E-02  0.3236E-02  0.8211E-02  0.3236E-02
      6.869  0.1859E-01  0.3835E-01  0.3835E-01  0.3835E-01  0.7703E-02  0.7703E-02  0.2640E-02  0.7703E-02  0.2640E-02
      7.004  0.1826E-01  0.3838E-01  0.3838E-01  0.3838E-01  0.7797E-02  0.7797E-02  0.3045E-02  0.7797E-02  0.3045E-02
      7.139  0.2053E-01  0.4791E-01  0.4791E-01  0.4791E-01  0.1027E-01  0.1027E-01  0.6552E-02  0.1027E-01  0.6552E-02
      7.274  0.2320E-01  0.6455E-01  0.6455E-01  0.6455E-01  0.1403E-01  0.1403E-01  0.1195E-01  0.1403E-01  0.1195E-01
      7.409  0.2512E-01  0.1100E+00  0.1100E+00  0.1100E+00  0.2345E-01  0.2345E-01  0.2687E-01  0.2345E-01  0.2687E-01
      7.544  0.2373E-01  0.1237E+00  0.1237E+00  0.1237E+00  0.2590E-01  0.2590E-01  0.3213E-01  0.2590E-01  0.3213E-01
      7.679  0.2656E-01  0.6061E-01  0.6061E-01  0.6061E-01  0.1251E-01  0.1251E-01  0.1278E-01  0.1251E-01  0.1278E-01
      7.814  0.5919E-01  0.8325E-01  0.8325E-01  0.8325E-01  0.1673E-01  0.1673E-01  0.1549E-01  0.1673E-01  0.1549E-01
      7.949  0.8602E-01  0.1062E+00  0.1062E+00  0.1062E+00  0.2004E-01  0.2004E-01  0.1847E-01  0.2004E-01  0.1847E-01
      8.084  0.8151E-01  0.9034E-01  0.9034E-01  0.9034E-01  0.1505E-01  0.1505E-01  0.1413E-01  0.1505E-01  0.1413E-01
      8.219  0.2790E-01  0.4181E-01  0.4181E-01  0.4181E-01  0.7696E-02  0.7696E-02  0.6207E-02  0.7696E-02  0.6207E-02
      8.354  0.1265E-01  0.3274E-01  0.3274E-01  0.3274E-01  0.7430E-02  0.7430E-02  0.5218E-02  0.7430E-02  0.5218E-02
      8.489  0.1514E-01  0.5116E-01  0.5116E-01  0.5116E-01  0.1397E-01  0.1397E-01  0.1043E-01  0.1397E-01  0.1043E-01
      8.624  0.2065E-01  0.5447E-01  0.5447E-01  0.5447E-01  0.1371E-01  0.1371E-01  0.1024E-01  0.1371E-01  0.1024E-01
      8.759  0.2417E-01  0.5333E-01  0.5333E-01  0.5333E-01  0.1182E-01  0.1182E-01  0.9371E-02  0.1182E-01  0.9371E-02
      8.894  0.3274E-01  0.6207E-01  0.6207E-01  0.6207E-01  0.1174E-01  0.1174E-01  0.1124E-01  0.1174E-01  0.1124E-01
      9.029  0.2779E-01  0.5389E-01  0.5389E-01  0.5389E-01  0.1057E-01  0.1057E-01  0.9154E-02  0.1057E-01  0.9154E-02
      9.163  0.1712E-01  0.4006E-01  0.4006E-01  0.4006E-01  0.8795E-02  0.8795E-02  0.6937E-02  0.8795E-02  0.6937E-02
      9.298  0.1712E-01  0.4031E-01  0.4031E-01  0.4031E-01  0.8777E-02  0.8777E-02  0.6589E-02  0.8777E-02  0.6589E-02
      9.433  0.1702E-01  0.4110E-01  0.4110E-01  0.4110E-01  0.8849E-02  0.8849E-02  0.6447E-02  0.8849E-02  0.6447E-02
      9.568  0.1779E-01  0.4284E-01  0.4284E-01  0.4284E-01  0.9507E-02  0.9507E-02  0.6739E-02  0.9507E-02  0.6739E-02
      9.703  0.2217E-01  0.5273E-01  0.5273E-01  0.5273E-01  0.1200E-01  0.1200E-01  0.7932E-02  0.1200E-01  0.7932E-02
      9.838  0.2279E-01  0.5417E-01  0.5417E-01  0.5417E-01  0.1141E-01  0.1141E-01  0.7743E-02  0.1141E-01  0.7743E-02
      9.973  0.2124E-01  0.5010E-01  0.5010E-01  0.5010E-01  0.1009E-01  0.1009E-01  0.6837E-02  0.1009E-01  0.6837E-02
     10.108  0.2457E-01  0.4348E-01  0.4348E-01  0.4348E-01  0.8830E-02  0.8830E-02  0.5900E-02  0.8830E-02  0.5900E-02
     10.243  0.4147E-01  0.4375E-01  0.4375E-01  0.4375E-01  0.8519E-02  0.8519E-02  0.5810E-02  0.8519E-02  0.5810E-02