    2    2    1    1
  0.2285070E+02  0.4013114E-09  0.4013114E-09  0.4013114E-09  0.5000000E-15
  1.000000000000000E-004
  CAR 
 fcc Si                                  
      8    400     16
 
  0.0000000E+00  0.0000000E+00  0.0000000E+00  0.2500000E-02
      1         -8.974674   1.000000
      2          3.718274   0.882687
      3          3.740631   0.808492
      4          3.740684   0.808288
      5          3.740684   0.808288
      6          6.250643   0.000000
      7          6.250687   0.000000
      8          6.250687   0.000000
      9         10.139222   0.000000
     10         12.955781   0.000000
     11         12.955781   0.000000
     12         14.413439   0.000000
     13         14.413446   0.000000
     14         14.413447   0.000000
     15         17.514230   0.000000
     16         27.841416   0.000000
 
  0.1282051E-01  0.0000000E+00  0.1282051E-01  0.2500000E-02
      1         -8.972027   1.000000
      2          3.483869   0.999997
      3          3.726719   0.857490
      4          3.726754   0.857378
      5          3.974176   0.007540
      6          6.241604   0.000000
      7          6.267931   0.000000
      8          6.267961   0.000000
      9         10.154340   0.000000
     10         12.902537   0.000000
     11         12.958471   0.000000
     12         14.418838   0.000000
     13         14.418843   0.000000
     14         14.456519   0.000000
     15         17.538927   0.000000
     16         27.690201   0.000000
 
  0.2564103E-01  0.0000000E+00  0.2564103E-01  0.2500000E-02
      1         -8.964065   1.000000
      2          3.238145   1.000000
      3          3.686079   0.949895
      4          3.686114   0.949844
      5          4.217113   0.000000
      6          6.214850   0.000000
      7          6.318595   0.000000
      8          6.318625   0.000000
      9         10.199229   0.000000
     10         12.760355   0.000000
     11         12.966540   0.000000
     12         14.435032   0.000000
     13         14.435037   0.000000
     14         14.568375   0.000000
     15         17.612927   0.000000
     16         27.376271   0.000000
 
  0.3846154E-01  0.0000000E+00  0.3846154E-01  0.2500000E-02
      1         -8.950790   1.000000
      2          2.992141   1.000000
      3          3.621810   0.994656
      4          3.621845   0.994648
      5          4.458126   0.000000
      6          6.171682   0.000000
      7          6.399543   0.000000
      8          6.399573   0.000000
      9         10.272588   0.000000
     10         12.562259   0.000000
     11         12.979988   0.000000
     12         14.462031   0.000000
     13         14.462036   0.000000
     14         14.716716   0.000000
     15         17.735782   0.000000
     16         27.020011   0.000000
 
  0.5128205E-01  0.0000000E+00  0.5128205E-01  0.2500000E-02
      1         -8.932205   1.000000
      2          2.746376   1.000000
      3          3.538054   0.999907
      4          3.538089   0.999907
      5          4.697016   0.000000
      6          6.114003   0.000000
      7          6.506619   0.000000
      8          6.506649   0.000000
      9         10.372487   0.000000
     10         12.334232   0.000000
     11         12.998817   0.000000
     12         14.499848   0.000000
     13         14.499853   0.000000
     14         14.879270   0.000000
     15         17.906952   0.000000
     16         26.647647   0.000000
 
  0.6410256E-01  0.0000000E+00  0.6410256E-01  0.2500000E-02
      1         -8.908317   1.000000
      2          2.500631   1.000000
      3          3.439135   1.000000
      4          3.439170   1.000000
      5          4.931529   0.000000
      6          6.044067   0.000000
      7          6.635466   0.000000
      8          6.635496   0.000000
      9         10.496623   0.000000
     10         12.092426   0.000000
     11         13.023028   0.000000
     12         14.548502   0.000000
     13         14.548507   0.000000
     14         15.038810   0.000000
     15         18.122935   0.000000
     16         26.268394   0.000000
 
  0.7692308E-01  0.0000000E+00  0.7692308E-01  0.2500000E-02
      1         -8.879113   1.000000
      2          2.255673   1.000000
      3          3.329641   1.000000
      4          3.329676   1.000000
      5          5.162480   0.000000
      6          5.964238   0.000000
      7          6.782531   0.000000
      8          6.782560   0.000000
      9         10.643624   0.000000
     10         11.847110   0.000000
     11         13.052808   0.000000
     12         14.608433   0.000000
     13         14.608438   0.000000
     14         15.191813   0.000000
     15         18.380791   0.000000
     16         25.886675   0.000000
 
  0.8974359E-01  0.0000000E+00  0.8974359E-01  0.2500000E-02
      1         -8.844664   1.000000
      2          2.010863   1.000000
      3          3.211508   1.000000
      4          3.211543   1.000000
      5          5.385504   0.000000
      6          5.876793   0.000000
      7          6.943648   0.000000
      8          6.943677   0.000000
      9         10.809018   0.000000
     10         11.605089   0.000000
     11         13.087805   0.000000
     12         14.678837   0.000000
     13         14.678842   0.000000
     14         15.337024   0.000000
     15         18.675948   0.000000
     16         25.504646   0.000000
 
  0.1025641E+00  0.0000000E+00  0.1025641E+00  0.2500000E-02
      1         -8.804941   1.000000
      2          1.766704   1.000000
      3          3.088132   1.000000
      4          3.088167   1.000000
      5          5.600063   0.000000
      6          5.783831   0.000000
      7          7.116464   0.000000
      8          7.116493   0.000000
      9         10.991649   0.000000
     10         11.371899   0.000000
     11         13.128188   0.000000
     12         14.760150   0.000000
     13         14.760155   0.000000
     14         15.475465   0.000000
     15         19.003791   0.000000
     16         25.123805   0.000000
 
  0.1153846E+00  0.0000000E+00  0.1153846E+00  0.2500000E-02
      1         -8.759889   1.000000
      2          1.523830   1.000000
      3          2.961783   1.000000
      4          2.961817   1.000000
      5          5.687718   0.000000
      6          5.804424   0.000000
      7          7.299093   0.000000
      8          7.299122   0.000000
      9         11.152380   0.000000
     10         11.189606   0.000000
     11         13.173989   0.000000
     12         14.852542   0.000000
     13         14.852547   0.000000
     14         15.610397   0.000000
     15         19.361075   0.000000
     16         24.745022   0.000000
 
  0.1282051E+00  0.0000000E+00  0.1282051E+00  0.2500000E-02
      1         -8.709655   1.000000
      2          1.281152   1.000000
      3          2.833715   1.000000
      4          2.833750   1.000000
      5          5.588555   0.000000
      6          5.994004   0.000000
      7          7.489121   0.000000
      8          7.489150   0.000000
      9         10.951218   0.000000
     10         11.400854   0.000000
     11         13.225153   0.000000
     12         14.955752   0.000000
     13         14.955757   0.000000
     14         15.741497   0.000000
     15         19.741169   0.000000
     16         24.364545   0.000000
 
  0.1410256E+00  0.0000000E+00  0.1410256E+00  0.2500000E-02
      1         -8.654189   1.000000
      2          1.039338   1.000000
      3          2.705437   1.000000
      4          2.705471   1.000000
      5          5.489046   0.000000
      6          6.165884   0.000000
      7          7.685764   0.000000
      8          7.685793   0.000000
      9         10.773323   0.000000
     10         11.624186   0.000000
     11         13.281709   0.000000
     12         15.069950   0.000000
     13         15.069955   0.000000
     14         15.872255   0.000000
     15         20.141669   0.000000
     16         23.991393   0.000000
 
  0.1538462E+00  0.0000000E+00  0.1538462E+00  0.2500000E-02
      1         -8.593508   1.000000
      2          0.798446   1.000000
      3          2.578443   1.000000
      4          2.578474   1.000000
      5          5.389947   0.000000
      6          6.315968   0.000000
      7          7.888031   0.000000
      8          7.888058   0.000000
      9         10.623900   0.000000
     10         11.858799   0.000000
     11         13.343658   0.000000
     12         15.195232   0.000000
     13         15.195237   0.000000
     14         16.004774   0.000000
     15         20.560072   0.000000
     16         23.621620   0.000000
 
  0.1666667E+00  0.0000000E+00  0.1666667E+00  0.2500000E-02
      1         -8.527661   1.000000
      2          0.558510   1.000000
      3          2.452504   1.000000
      4          2.452535   1.000000
      5          5.292209   0.000000
      6          6.439248   0.000000
      7          8.094572   0.000000
      8          8.094598   0.000000
      9         10.508116   0.000000
     10         12.102101   0.000000
     11         13.411004   0.000000
     12         15.331430   0.000000
     13         15.331435   0.000000
     14         16.140141   0.000000
     15         20.992900   0.000000
     16         23.255491   0.000000
 
  0.1794872E+00  0.0000000E+00  0.1794872E+00  0.2500000E-02
      1         -8.456592   1.000000
      2          0.319649   1.000000
      3          2.329564   1.000000
      4          2.329595   1.000000
      5          5.197017   0.000000
      6          6.531741   0.000000
      7          8.305483   0.000000
      8          8.305509   0.000000
      9         10.430858   0.000000
     10         12.353696   0.000000
     11         13.484886   0.000000
     12         15.479089   0.000000
     13         15.479094   0.000000
     14         16.280474   0.000000
     15         21.438536   0.000000
     16         22.893406   0.000000
 
  0.1923077E+00  0.0000000E+00  0.1923077E+00  0.2500000E-02
      1         -8.380431   1.000000
      2          0.081756   1.000000
      3          2.208551   1.000000
      4          2.208582   1.000000
      5          5.104219   0.000000
      6          6.589810   0.000000
      7          8.519034   0.000000
      8          8.519060   0.000000
      9         10.395719   0.000000
     10         12.612394   0.000000
     11         13.563088   0.000000
     12         15.637248   0.000000
     13         15.637253   0.000000
     14         16.425654   0.000000
     15         21.895040   0.000000
     16         22.535141   0.000000
 
  0.2051282E+00  0.0000000E+00  0.2051282E+00  0.2500000E-02
      1         -8.299153   1.000000
      2         -0.155058   1.000000
      3          2.090706   1.000000
      4          2.090737   1.000000
      5          5.014797   0.000000
      6          6.612306   0.000000
      7          8.735280   0.000000
      8          8.735305   0.000000
      9         10.404272   0.000000
     10         12.877195   0.000000
     11         13.646695   0.000000
     12         15.806348   0.000000
     13         15.806353   0.000000
     14         16.577119   0.000000
     15         22.181098   0.000000
     16         22.181110   0.000000
 
  0.2179487E+00  0.0000000E+00  0.2179487E+00  0.2500000E-02
      1         -8.212789   1.000000
      2         -0.390735   1.000000
      3          1.976383   1.000000
      4          1.976414   1.000000
      5          4.929223   0.000000
      6          6.600364   0.000000
      7          8.953789   0.000000
      8          8.953814   0.000000
      9         10.455529   0.000000
     10         13.147015   0.000000
     11         13.735709   0.000000
     12         15.986330   0.000000
     13         15.986335   0.000000
     14         16.735579   0.000000
     15         21.831453   0.000000
     16         21.831456   0.000000
 
  0.2307692E+00  0.0000000E+00  0.2307692E+00  0.2500000E-02
      1         -8.121387   1.000000
      2         -0.625221   1.000000
      3          1.865876   1.000000
      4          1.865907   1.000000
      5          4.847895   0.000000
      6          6.557401   0.000000
      7          9.174185   0.000000
      8          9.174209   0.000000
      9         10.546149   0.000000
     10         13.420699   0.000000
     11         13.830134   0.000000
     12         16.177108   0.000000
     13         16.177113   0.000000
     14         16.901625   0.000000
     15         21.486387   0.000000
     16         21.486390   0.000000
 
  0.2435897E+00  0.0000000E+00  0.2435897E+00  0.2500000E-02
      1         -8.024970   1.000000
      2         -0.858461   1.000000
      3          1.759434   1.000000
      4          1.759465   1.000000
      5          4.771152   0.000000
      6          6.488354   0.000000
      7          9.396133   0.000000
      8          9.396157   0.000000
      9         10.671212   0.000000
     10         13.696962   0.000000
     11         13.929971   0.000000
     12         16.378555   0.000000
     13         16.378560   0.000000
     14         17.075752   0.000000
     15         21.146118   0.000000
     16         21.146120   0.000000
 
  0.2564103E+00  0.0000000E+00  0.2564103E+00  0.2500000E-02
      1         -7.923570   1.000000
      2         -1.090393   1.000000
      3          1.657270   1.000000
      4          1.657301   1.000000
      5          4.699281   0.000000
      6          6.398718   0.000000
      7          9.619322   0.000000
      8          9.619346   0.000000
      9         10.825181   0.000000
     10         13.974320   0.000000
     11         14.035225   0.000000
     12         16.590491   0.000000
     13         16.590496   0.000000
     14         17.258375   0.000000
     15         20.810901   0.000000
     16         20.810903   0.000000
 
  0.2692308E+00  0.0000000E+00  0.2692308E+00  0.2500000E-02
      1         -7.817226   1.000000
      2         -1.320951   1.000000
      3          1.559567   1.000000
      4          1.559598   1.000000
      5          4.632537   0.000000
      6          6.293789   0.000000
      7          9.843477   0.000000
      8          9.843500   0.000000
      9         11.002693   0.000000
     10         14.145898   0.000000
     11         14.251034   0.000000
     12         16.812650   0.000000
     13         16.812655   0.000000
     14         17.449849   0.000000
     15         20.481077   0.000000
     16         20.481079   0.000000
 
  0.2820513E+00  0.0000000E+00  0.2820513E+00  0.2500000E-02
      1         -7.705982   1.000000
      2         -1.550067   1.000000
      3          1.466484   1.000000
      4          1.466515   1.000000
      5          4.571136   0.000000
      6          6.178223   0.000000
      7         10.068326   0.000000
      8         10.068349   0.000000
      9         11.198984   0.000000
     10         14.261995   0.000000
     11         14.524999   0.000000
     12         17.044618   0.000000
     13         17.044623   0.000000
     14         17.650477   0.000000
     15         20.157154   0.000000
     16         20.157156   0.000000
 
  0.2948718E+00  0.0000000E+00  0.2948718E+00  0.2500000E-02
      1         -7.589887   1.000000
      2         -1.777646   1.000000
      3          1.378158   1.000000
      4          1.378190   1.000000
      5          4.515273   0.000000
      6          6.055890   0.000000
      7         10.293591   0.000000
      8         10.293614   0.000000
      9         11.410040   0.000000
     10         14.383518   0.000000
     11         14.793621   0.000000
     12         17.285689   0.000000
     13         17.285694   0.000000
     14         17.860511   0.000000
     15         19.839942   0.000000
     16         19.839944   0.000000
 
  0.3076923E+00  0.0000000E+00  0.3076923E+00  0.2500000E-02
      1         -7.468786   1.000000
      2         -2.004617   1.000000
      3          1.294744   1.000000
      4          1.294775   1.000000
      5          4.465475   0.000000
      6          5.929129   0.000000
      7         10.519383   0.000000
      8         10.519406   0.000000
      9         11.632455   0.000000
     10         14.510471   0.000000
     11         15.054371   0.000000
     12         17.535510   0.000000
     13         17.535515   0.000000
     14         18.080162   0.000000
     15         19.530132   0.000000
     16         19.530134   0.000000
 
  0.3205128E+00  0.0000000E+00  0.3205128E+00  0.2500000E-02
      1         -7.343162   1.000000
      2         -2.229163   1.000000
      3          1.215917   1.000000
      4          1.215948   1.000000
      5          4.420849   0.000000
      6          5.801931   0.000000
      7         10.744473   0.000000
      8         10.744495   0.000000
      9         11.863726   0.000000
     10         14.642858   0.000000
     11         15.301816   0.000000
     12         17.788522   0.000000
     13         17.788527   0.000000
     14         18.309287   0.000000
     15         19.232847   0.000000
     16         19.232850   0.000000
 
  0.3333333E+00  0.0000000E+00  0.3333333E+00  0.2500000E-02
      1         -7.212843   1.000000
      2         -2.451590   1.000000
      3          1.142503   1.000000
      4          1.142535   1.000000
      5          4.382528   0.000000
      6          5.675444   0.000000
      7         10.968990   0.000000
      8         10.969012   0.000000
      9         12.101742   0.000000
     10         14.780682   0.000000
     11         15.531836   0.000000
     12         18.034939   0.000000
     13         18.034944   0.000000
     14         18.548616   0.000000
     15         18.958742   0.000000
     16         18.958745   0.000000
 
  0.3461538E+00  0.0000000E+00  0.3461538E+00  0.2500000E-02
      1         -7.077890   1.000000
      2         -2.672091   1.000000
      3          1.074248   1.000000
      4          1.074279   1.000000
      5          4.350323   0.000000
      6          5.551135   0.000000
      7         11.192400   0.000000
      8         11.192422   0.000000
      9         12.344725   0.000000
     10         14.923946   0.000000
     11         15.738604   0.000000
     12         18.219923   0.000000
     13         18.219927   0.000000
     14         18.762757   0.000000
     15         18.762761   0.000000
     16         18.797948   0.000000
 
  0.3589744E+00  0.0000000E+00  0.3589744E+00  0.2500000E-02
      1         -6.938365   1.000000
      2         -2.890553   1.000000
      3          1.011223   1.000000
      4          1.011254   1.000000
      5          4.324341   0.000000
      6          5.430151   0.000000
      7         11.414078   0.000000
      8         11.414099   0.000000
      9         12.591250   0.000000
     10         15.072653   0.000000
     11         15.915571   0.000000
     12         18.170207   0.000000
     13         18.170210   0.000000
     14         18.818621   0.000000
     15         18.818626   0.000000
     16         19.057333   0.000000
 
  0.3717949E+00  0.0000000E+00  0.3717949E+00  0.2500000E-02
      1         -6.794344   1.000000
      2         -3.106852   1.000000
      3          0.953491   1.000000
      4          0.953522   1.000000
      5          4.304686   0.000000
      6          5.313381   0.000000
      7         11.633228   0.000000
      8         11.633249   0.000000
      9         12.840129   0.000000
     10         15.226807   0.000000
     11         16.056007   0.000000
     12         17.950273   0.000000
     13         17.950276   0.000000
     14         19.062505   0.000000
     15         19.062510   0.000000
     16         19.326794   0.000000
 
  0.3846154E+00  0.0000000E+00  0.3846154E+00  0.2500000E-02
      1         -6.645904   1.000000
      2         -3.320866   1.000000
      3          0.901109   1.000000
      4          0.901140   1.000000
      5          4.291449   0.000000
      6          5.201510   0.000000
      7         11.848783   0.000000
      8         11.848804   0.000000
      9         13.090335   0.000000
     10         15.386410   0.000000
     11         16.153923   0.000000
     12         17.699296   0.000000
     13         17.699300   0.000000
     14         19.199379   0.000000
     15         19.356143   0.000000
     16         19.356149   0.000000
 
  0.3974359E+00  0.0000000E+00  0.3974359E+00  0.2500000E-02
      1         -6.493047   1.000000
      2         -3.532471   1.000000
      3          0.856133   1.000000
      4          0.856151   1.000000
      5          4.284713   0.000000
      6          5.095159   0.000000
      7         12.059536   0.000000
      8         12.059556   0.000000
      9         13.341054   0.000000
     10         15.552328   0.000000
     11         16.205300   0.000000
     12         17.448226   0.000000
     13         17.448230   0.000000
     14         18.941330   0.000000
     15         19.670601   0.000000
     16         19.670606   0.000000
 
  0.4102564E+00  0.0000000E+00  0.4102564E+00  0.2500000E-02
      1         -6.335967   1.000000
      2         -3.741548   1.000000
      3          0.814553   1.000000
      4          0.814571   1.000000
      5          4.284553   0.000000
      6          4.994565   0.000000
      7         12.263093   0.000000
      8         12.263113   0.000000
      9         13.591208   0.000000
     10         15.722863   0.000000
     11         16.208940   0.000000
     12         17.205337   0.000000
     13         17.205341   0.000000
     14         18.688718   0.000000
     15         19.997885   0.000000
     16         19.997888   0.000000
 
  0.4230769E+00  0.0000000E+00  0.4230769E+00  0.2500000E-02
      1         -6.174691   1.000000
      2         -3.947985   1.000000
      3          0.778448   1.000000
      4          0.778466   1.000000
      5          4.291041   0.000000
      6          4.900124   0.000000
      7         12.457034   0.000000
      8         12.457054   0.000000
      9         13.840065   0.000000
     10         15.898855   0.000000
     11         16.166844   0.000000
     12         16.975804   0.000000
     13         16.975808   0.000000
     14         18.441559   0.000000
     15         20.336064   0.000000
     16         20.336066   0.000000
 
  0.4358974E+00  0.0000000E+00  0.4358974E+00  0.2500000E-02
      1         -6.009307   1.000000
      2         -4.151647   1.000000
      3          0.747851   1.000000
      4          0.747869   1.000000
      5          4.304237   0.000000
      6          4.812072   0.000000
      7         12.637774   0.000000
      8         12.637794   0.000000
      9         14.086745   0.000000
     10         16.080308   0.000000
     11         16.083474   0.000000
     12         16.764193   0.000000
     13         16.764197   0.000000
     14         18.199859   0.000000
     15         20.683987   0.000000
     16         20.684006   0.000000
 
  0.4487179E+00  0.0000000E+00  0.4487179E+00  0.2500000E-02
      1         -5.839937   1.000000
      2         -4.352403   1.000000
      3          0.722356   1.000000
      4          0.722374   1.000000
      5          4.324080   0.000000
      6          4.730588   0.000000
      7         12.800195   0.000000
      8         12.800215   0.000000
      9         14.330280   0.000000
     10         15.964165   0.000000
     11         16.267223   0.000000
     12         16.574097   0.000000
     13         16.574101   0.000000
     14         17.959265   0.000000
     15         21.040768   0.000000
     16         21.041227   0.000000
 
  0.4615385E+00  0.0000000E+00  0.4615385E+00  0.2500000E-02
      1         -5.666633   1.000000
      2         -4.550131   1.000000
      3          0.702827   1.000000
      4          0.702845   1.000000
      5          4.350853   0.000000
      6          4.655801   0.000000
      7         12.938760   0.000000
      8         12.938780   0.000000
      9         14.569574   0.000000
     10         15.815995   0.000000
     11         16.415379   0.000000
     12         16.415383   0.000000
     13         16.459601   0.000000
     14         17.728632   0.000000
     15         21.406326   0.000000
     16         21.406906   0.000000
 
  0.4743590E+00  0.0000000E+00  0.4743590E+00  0.2500000E-02
      1         -5.489138   1.000000
      2         -4.744573   1.000000
      3          0.688866   1.000000
      4          0.688884   1.000000
      5          4.384632   0.000000
      6          4.588012   0.000000
      7         13.046285   0.000000
      8         13.046305   0.000000
      9         14.803973   0.000000
     10         15.644300   0.000000
     11         16.293805   0.000000
     12         16.293809   0.000000
     13         16.657441   0.000000
     14         17.503462   0.000000
     15         21.782117   0.000000
     16         21.782747   0.000000
 
  0.4871795E+00  0.0000000E+00  0.4871795E+00  0.2500000E-02
      1         -5.308299   1.000000
      2         -4.935895   1.000000
      3          0.680484   1.000000
      4          0.680503   1.000000
      5          4.425134   0.000000
      6          4.526830   0.000000
      7         13.114568   0.000000
      8         13.114589   0.000000
      9         15.030491   0.000000
     10         15.453513   0.000000
     11         16.216781   0.000000
     12         16.216785   0.000000
     13         16.860747   0.000000
     14         17.283758   0.000000
     15         22.163880   0.000000
     16         22.166079   0.000000
 
  0.5000000E+00  0.0000000E+00  0.5000000E+00  0.2500000E-02
      1         -5.123848   1.000000
      2         -5.123847   1.000000
      3          0.677690   1.000000
      4          0.677708   1.000000
      5          4.472532   0.000000
      6          4.472533   0.000000
      7         13.138089   0.000000
      8         13.138110   0.000000
      9         15.247845   0.000000
     10         15.247850   0.000000
     11         16.190341   0.000000
     12         16.190344   0.000000
     13         17.069517   0.000000
     14         17.069521   0.000000
     15         22.552570   0.000000
     16         22.555145   0.000000
 
  0.5000000E+00  0.0000000E+00  0.5000000E+00  0.2500000E-02
      1         -5.123848   1.000000
      2         -5.123847   1.000000
      3          0.677690   1.000000
      4          0.677708   1.000000
      5          4.472532   0.000000
      6          4.472533   0.000000
      7         13.138089   0.000000
      8         13.138110   0.000000
      9         15.247845   0.000000
     10         15.247850   0.000000
     11         16.190341   0.000000
     12         16.190344   0.000000
     13         17.069517   0.000000
     14         17.069521   0.000000
     15         22.551375   0.000000
     16         22.554191   0.000000
 
  0.5000000E+00  0.6410256E-02  0.5064103E+00  0.2500000E-02
      1         -5.123700   1.000000
      2         -5.123699   1.000000
      3          0.675914   1.000000
      4          0.675932   1.000000
      5          4.476188   0.000000
      6          4.476188   0.000000
      7         13.132196   0.000000
      8         13.132216   0.000000
      9         15.238832   0.000000
     10         15.238837   0.000000
     11         16.193847   0.000000
     12         16.193852   0.000000
     13         17.081530   0.000000
     14         17.081533   0.000000
     15         22.432082   0.000000
     16         22.432793   0.000000
 
  0.5000000E+00  0.1282051E-01  0.5128205E+00  0.2500000E-02
      1         -5.123252   1.000000
      2         -5.123251   1.000000
      3          0.670841   1.000000
      4          0.670859   1.000000
      5          4.487166   0.000000
      6          4.487167   0.000000
      7         13.114839   0.000000
      8         13.114861   0.000000
      9         15.213181   0.000000
     10         15.213186   0.000000
     11         16.203805   0.000000
     12         16.203812   0.000000
     13         17.118433   0.000000
     14         17.118436   0.000000
     15         22.312638   0.000000
     16         22.312694   0.000000
 
  0.5000000E+00  0.1923077E-01  0.5192308E+00  0.2500000E-02
      1         -5.122518   1.000000
      2         -5.122517   1.000000
      3          0.662078   1.000000
      4          0.662096   1.000000
      5          4.505322   0.000000
      6          4.505323   0.000000
      7         13.085285   0.000000
      8         13.085307   0.000000
      9         15.174228   0.000000
     10         15.174232   0.000000
     11         16.217244   0.000000
     12         16.217252   0.000000
     13         17.176519   0.000000
     14         17.176522   0.000000
     15         22.195976   0.000000
     16         22.196039   0.000000
 
  0.5000000E+00  0.2564103E-01  0.5256410E+00  0.2500000E-02
      1         -5.121495   1.000000
      2         -5.121494   1.000000
      3          0.649989   1.000000
      4          0.650007   1.000000
      5          4.530564   0.000000
      6          4.530565   0.000000
      7         13.043903   0.000000
      8         13.043926   0.000000
      9         15.126365   0.000000
     10         15.126369   0.000000
     11         16.232308   0.000000
     12         16.232317   0.000000
     13         17.254884   0.000000
     14         17.254886   0.000000
     15         22.082109   0.000000
     16         22.082128   0.000000
 
  0.5000000E+00  0.3205128E-01  0.5320513E+00  0.2500000E-02
      1         -5.120190   1.000000
      2         -5.120189   1.000000
      3          0.634744   1.000000
      4          0.634762   1.000000
      5          4.562727   0.000000
      6          4.562728   0.000000
      7         12.990761   0.000000