 running   16 mpi-ranks, on    1 nodes
 distrk:  each k-point on   16 cores,    1 groups
 distr:  one band on    1 cores,   16 groups
 vasp.6.4.0 14Feb23 (build Mar 14 2023 01:08:06) complex                        
  
 POSCAR found type information on POSCAR Ge
 POSCAR found :  1 types and       2 ions
 scaLAPACK will be used
 -----------------------------------------------------------------------------
|                                                                             |
|           W    W    AA    RRRRR   N    N  II  N    N   GGGG   !!!           |
|           W    W   A  A   R    R  NN   N  II  NN   N  G    G  !!!           |
|           W    W  A    A  R    R  N N  N  II  N N  N  G       !!!           |
|           W WW W  AAAAAA  RRRRR   N  N N  II  N  N N  G  GGG   !            |
|           WW  WW  A    A  R   R   N   NN  II  N   NN  G    G                |
|           W    W  A    A  R    R  N    N  II  N    N   GGGG   !!!           |
|                                                                             |
|     For optimal performance we recommend to set                             |
|       NCORE = 2 up to number-of-cores-per-socket                            |
|     NCORE specifies how many cores store one orbital (NPAR=cpu/NCORE).      |
|     This setting can greatly improve the performance of VASP for DFT.       |
|     The default, NCORE=1 might be grossly inefficient on modern             |
|     multi-core architectures or massively parallel machines. Do your        |
|     own testing! More info at https://www.vasp.at/wiki/index.php/NCORE      |
|     Unfortunately you need to use the default for GW and RPA                |
|     calculations (for HF NCORE is supported but not extensively tested      |
|     yet).                                                                   |
|                                                                             |
 -----------------------------------------------------------------------------

 LDA part: xc-table for Pade appr. of Perdew
 WARNING: stress and forces are not correct
 POSCAR, INCAR and KPOINTS ok, starting setup
 FFT: planning ... GRIDC
 FFT: planning ... GRID_SOFT
 FFT: planning ... GRID
 WAVECAR not read
 charge-density read from file: unknown                                 
 entering main loop
       N       E                     dE             d eps       ncg     rms          rms(c)
DAV:   1    -0.329267752551E+01   -0.32927E+01   -0.19296E+03 14768   0.165E+02
DAV:   2    -0.903948346533E+01   -0.57468E+01   -0.56736E+01 17936   0.258E+01
DAV:   3    -0.906069350877E+01   -0.21210E-01   -0.21142E-01 15456   0.189E+00
DAV:   4    -0.906070087888E+01   -0.73701E-05   -0.73705E-05 22096   0.352E-02
DAV:   5    -0.906070087898E+01   -0.97600E-10   -0.71545E-10 15312   0.776E-05
DAV:   6    -0.906070087923E+01   -0.25128E-09    0.27431E-13 16816   0.115E-06
   1 F= -.90607009E+01 E0= -.90591493E+01  d E =-.310314E-02
 writing wavefunctions
