       N       E                     dE             d eps       ncg     rms          rms(c)
DAV:   1    -0.329267752551E+01   -0.32927E+01   -0.19296E+03 14768   0.165E+02
DAV:   2    -0.903948346533E+01   -0.57468E+01   -0.56736E+01 17936   0.258E+01
DAV:   3    -0.906069350877E+01   -0.21210E-01   -0.21142E-01 15456   0.189E+00
DAV:   4    -0.906070087888E+01   -0.73701E-05   -0.73705E-05 22096   0.352E-02
DAV:   5    -0.906070087898E+01   -0.97600E-10   -0.71545E-10 15312   0.776E-05
DAV:   6    -0.906070087923E+01   -0.25128E-09    0.27431E-13 16816   0.115E-06
   1 F= -.90607009E+01 E0= -.90591493E+01  d E =-.310314E-02
