 vasp.6.4.0 14Feb23 (build Mar 14 2023 01:08:06) complex                        
  
 executed on             LinuxIFC date 2024.04.19  17:51:15
 running   16 mpi-ranks, on    1 nodes
 distrk:  each k-point on   16 cores,    1 groups
 distr:  one band on NCORE=   1 cores,   16 groups


--------------------------------------------------------------------------------------------------------


 INCAR:
   SYSTEM = fcc Si
   ICHARG = 11
   ISMEAR = 0
   SIGMA = 0.1
   LORBIT = 11

 POTCAR:    PAW_PBE Ge 05Jan2001                  
 -----------------------------------------------------------------------------
|                                                                             |
|           W    W    AA    RRRRR   N    N  II  N    N   GGGG   !!!           |
|           W    W   A  A   R    R  NN   N  II  NN   N  G    G  !!!           |
|           W    W  A    A  R    R  N N  N  II  N N  N  G       !!!           |
|           W WW W  AAAAAA  RRRRR   N  N N  II  N  N N  G  GGG   !            |
|           WW  WW  A    A  R   R   N   NN  II  N   NN  G    G                |
|           W    W  A    A  R    R  N    N  II  N    N   GGGG   !!!           |
|                                                                             |
|     For optimal performance we recommend to set                             |
|       NCORE = 2 up to number-of-cores-per-socket                            |
|     NCORE specifies how many cores store one orbital (NPAR=cpu/NCORE).      |
|     This setting can greatly improve the performance of VASP for DFT.       |
|     The default, NCORE=1 might be grossly inefficient on modern             |
|     multi-core architectures or massively parallel machines. Do your        |
|     own testing! More info at https://www.vasp.at/wiki/index.php/NCORE      |
|     Unfortunately you need to use the default for GW and RPA                |
|     calculations (for HF NCORE is supported but not extensively tested      |
|     yet).                                                                   |
|                                                                             |
 -----------------------------------------------------------------------------

 POTCAR:    PAW_PBE Ge 05Jan2001                  
   SHA256 =  7ff11deedcda39f1950abeda971a84a1f98a719a97bc9679a0df455c008734f8 Ge/POTCAR             
   COPYR  = (c) Copyright 05Jan2001 Georg Kresse                                                    
   COPYR  = This file is part of the software VASP. Any use, copying, and all other rights are regul
   COPYR  = If you do not have a valid VASP license, you may not use, copy or distribute this file. 
   VRHFIN =Ge: s2p2                                                                                 
   LEXCH  = PE                                                                                      
   EATOM  =   104.9960 eV,    7.7170 Ry                                                             
                                                                                                    
   TITEL  = PAW_PBE Ge 05Jan2001                                                                    
   LULTRA =        F    use ultrasoft PP ?                                                          
   IUNSCR =        1    unscreen: 0-lin 1-nonlin 2-no                                               
   RPACOR =    2.170    partial core radius                                                         
   POMASS =   72.610; ZVAL   =    4.000    mass and valenz                                          
   RCORE  =    2.300    outmost cutoff radius                                                       
   RWIGS  =    2.300; RWIGS  =    1.217    wigner-seitz radius (au A)                               
   ENMAX  =  173.807; ENMIN  =  130.355 eV                                                          
   ICORE  =        3    local potential                                                             
   LCOR   =        T    correct aug charges                                                         
   LPAW   =        T    paw PP                                                                      
   EAUG   =  385.843                                                                                
   DEXC   =    0.000                                                                                
   RMAX   =    2.342    core radius for proj-oper                                                   
   RAUG   =    1.300    factor for augmentation sphere                                              
   RDEP   =    2.318    radius for radial grids                                                     
   RDEPT  =    2.103    core radius for aug-charge                                                  
                                                                                                    
   Atomic configuration                                                                             
   10 entries                                                                                       
     n  l   j            E        occ.                                                              
     1  0  0.50    -10959.8463   2.0000                                                             
     2  0  0.50     -1371.6056   2.0000                                                             
     2  1  1.50     -1198.4791   6.0000                                                             
     3  0  0.50      -168.4733   2.0000                                                             
     3  1  1.50      -115.6019   6.0000                                                             
     3  2  2.50       -29.3106  10.0000                                                             
     4  0  0.50       -11.7309   2.0000                                                             
     4  1  0.50        -3.8952   2.0000                                                             
     4  2  1.50        -4.0817   0.0000                                                             
     4  3  2.50        -4.0817   0.0000                                                             
   Description                                                                                      
     l       E           TYP  RCUT    TYP  RCUT                                                     
     0    -11.7309493     23  2.300                                                                 
     0     -7.4578696     23  2.300                                                                 
     1     -3.8952261     23  2.300                                                                 
     1      6.1178114     23  2.300                                                                 
     2     -4.0817478     23  2.300                                                                 
     3     -1.3605826      7  2.300                                                                 
  local pseudopotential read in
  partial core-charges read in
  partial kinetic energy density read in
  atomic valenz-charges read in
  non local Contribution for L=           0  read in
    real space projection operators read in
  non local Contribution for L=           0  read in
    real space projection operators read in
  non local Contribution for L=           1  read in
    real space projection operators read in
  non local Contribution for L=           1  read in
    real space projection operators read in
  non local Contribution for L=           2  read in
    real space projection operators read in
    PAW grid and wavefunctions read in
 
   number of l-projection  operators is LMAX  =           5
   number of lm-projection operators is LMMAX =          13
 
  PAW_PBE Ge 05Jan2001                  :
 energy of atom  1       EATOM= -104.9960
 kinetic energy error for atom=    0.0055 (will be added to EATOM!!)
 
 
 POSCAR: diamond_Ge_2
  positions in direct lattice
  No initial velocities read in
 exchange correlation table for  LEXCH =        8
   RHO(1)=    0.500       N(1)  =     2000
   RHO(2)=  100.500       N(2)  =     4000
 


--------------------------------------------------------------------------------------------------------


 ion  position               nearest neighbor table
   1  0.750  0.750  0.750-   2 2.46   2 2.46   2 2.46   2 2.46
   2  0.500  0.500  0.500-   1 2.46   1 2.46   1 2.46   1 2.46
 
  LATTYP: Found a face centered cubic cell.
 ALAT       =     5.6754000000
  
  Lattice vectors:
  
 A1 = (   0.0000000000,   2.8377000000,   2.8377000000)
 A2 = (   2.8377000000,   0.0000000000,   2.8377000000)
 A3 = (   2.8377000000,   2.8377000000,   0.0000000000)


Analysis of symmetry for initial positions (statically):
=====================================================================
 Subroutine PRICEL returns:
 Original cell was already a primitive cell.
 

 Routine SETGRP: Setting up the symmetry group for a 
 face centered cubic supercell.


 Subroutine GETGRP returns: Found 48 space group operations
 (whereof 24 operations were pure point group operations)
 out of a pool of 48 trial point group operations.


The static configuration has the point symmetry T_d .
 The point group associated with its full space group is O_h .


Analysis of symmetry for dynamics (positions and initial velocities):
=====================================================================
 Subroutine PRICEL returns:
 Original cell was already a primitive cell.
 

 Routine SETGRP: Setting up the symmetry group for a 
 face centered cubic supercell.


 Subroutine GETGRP returns: Found 48 space group operations
 (whereof 24 operations were pure point group operations)
 out of a pool of 48 trial point group operations.


The dynamic configuration has the point symmetry T_d .
 The point group associated with its full space group is O_h .


 Subroutine INISYM returns: Found 48 space group operations
 (whereof 24 operations are pure point group operations),
 and found     1 'primitive' translations


----------------------------------------------------------------------------------------

                                     Primitive cell                                     

  volume of cell :      45.7014

  direct lattice vectors                    reciprocal lattice vectors
     0.000000000  2.837700000  2.837700000    -0.176199034  0.176199034  0.176199034
     2.837700000  0.000000000  2.837700000     0.176199034 -0.176199034  0.176199034
     2.837700000  2.837700000  0.000000000     0.176199034  0.176199034 -0.176199034

  length of vectors
     4.013113826  4.013113826  4.013113826     0.305185680  0.305185680  0.305185680

  position of ions in fractional coordinates (direct lattice)
     0.750000000  0.750000000  0.750000000
     0.500000000  0.500000000  0.500000000

  ion indices of the primitive-cell ions
   primitive index   ion index
                 1           1
                 2           2

----------------------------------------------------------------------------------------

 
 
 KPOINTS: Line_mode KPOINTS file                  

Interpolating k-points between supplied coordinates.

 Line segments in fractional coordinates (reciprocal lattice):
    0.000000  0.000000  0.000000  ...  0.500000  0.000000  0.500000
    0.500000  0.000000  0.500000  ...  0.500000  0.250000  0.750000
    0.500000  0.250000  0.750000  ...  0.375000  0.375000  0.750000
    0.375000  0.375000  0.750000  ...  0.000000  0.000000  0.000000
    0.000000  0.000000  0.000000  ...  0.500000  0.500000  0.500000
    0.500000  0.500000  0.500000  ...  0.625000  0.250000  0.625000
    0.625000  0.250000  0.625000  ...  0.500000  0.250000  0.750000
    0.500000  0.250000  0.750000  ...  0.500000  0.500000  0.500000
    0.500000  0.500000  0.500000  ...  0.375000  0.375000  0.750000
    0.625000  0.250000  0.625000  ...  0.500000  0.000000  0.500000

 Generated    40 points on each line segment, for a total of    400 k-points:

 Following reciprocal coordinates:
            Coordinates               Weight
  0.000000  0.000000  0.000000      0.002500
  0.012821  0.000000  0.012821      0.002500
  0.025641  0.000000  0.025641      0.002500
  0.038462  0.000000  0.038462      0.002500
  0.051282  0.000000  0.051282      0.002500
  0.064103  0.000000  0.064103      0.002500
  0.076923  0.000000  0.076923      0.002500
  0.089744  0.000000  0.089744      0.002500
  0.102564  0.000000  0.102564      0.002500
  0.115385  0.000000  0.115385      0.002500
  0.128205  0.000000  0.128205      0.002500
  0.141026  0.000000  0.141026      0.002500
  0.153846  0.000000  0.153846      0.002500
  0.166667  0.000000  0.166667      0.002500
  0.179487  0.000000  0.179487      0.002500
  0.192308  0.000000  0.192308      0.002500
  0.205128  0.000000  0.205128      0.002500
  0.217949  0.000000  0.217949      0.002500
  0.230769  0.000000  0.230769      0.002500
  0.243590  0.000000  0.243590      0.002500
  0.256410  0.000000  0.256410      0.002500
  0.269231  0.000000  0.269231      0.002500
  0.282051  0.000000  0.282051      0.002500
  0.294872  0.000000  0.294872      0.002500
  0.307692  0.000000  0.307692      0.002500
  0.320513  0.000000  0.320513      0.002500
  0.333333  0.000000  0.333333      0.002500
  0.346154  0.000000  0.346154      0.002500
  0.358974  0.000000  0.358974      0.002500
  0.371795  0.000000  0.371795      0.002500
  0.384615  0.000000  0.384615      0.002500
  0.397436  0.000000  0.397436      0.002500
  0.410256  0.000000  0.410256      0.002500
  0.423077  0.000000  0.423077      0.002500
  0.435897  0.000000  0.435897      0.002500
  0.448718  0.000000  0.448718      0.002500
  0.461538  0.000000  0.461538      0.002500
  0.474359  0.000000  0.474359      0.002500
  0.487179  0.000000  0.487179      0.002500
  0.500000  0.000000  0.500000      0.002500
  0.500000  0.000000  0.500000      0.002500
  0.500000  0.006410  0.506410      0.002500
  0.500000  0.012821  0.512821      0.002500
  0.500000  0.019231  0.519231      0.002500
  0.500000  0.025641  0.525641      0.002500
  0.500000  0.032051  0.532051      0.002500
  0.500000  0.038462  0.538462      0.002500
  0.500000  0.044872  0.544872      0.002500
  0.500000  0.051282  0.551282      0.002500
  0.500000  0.057692  0.557692      0.002500
  0.500000  0.064103  0.564103      0.002500
  0.500000  0.070513  0.570513      0.002500
  0.500000  0.076923  0.576923      0.002500
  0.500000  0.083333  0.583333      0.002500
  0.500000  0.089744  0.589744      0.002500
  0.500000  0.096154  0.596154      0.002500
  0.500000  0.102564  0.602564      0.002500
  0.500000  0.108974  0.608974      0.002500
  0.500000  0.115385  0.615385      0.002500
  0.500000  0.121795  0.621795      0.002500
  0.500000  0.128205  0.628205      0.002500
  0.500000  0.134615  0.634615      0.002500
  0.500000  0.141026  0.641026      0.002500
  0.500000  0.147436  0.647436      0.002500
  0.500000  0.153846  0.653846      0.002500
  0.500000  0.160256  0.660256      0.002500
  0.500000  0.166667  0.666667      0.002500
  0.500000  0.173077  0.673077      0.002500
  0.500000  0.179487  0.679487      0.002500
  0.500000  0.185897  0.685897      0.002500
  0.500000  0.192308  0.692308      0.002500
  0.500000  0.198718  0.698718      0.002500
  0.500000  0.205128  0.705128      0.002500
  0.500000  0.211538  0.711538      0.002500
  0.500000  0.217949  0.717949      0.002500
  0.500000  0.224359  0.724359      0.002500
  0.500000  0.230769  0.730769      0.002500
  0.500000  0.237179  0.737179      0.002500
  0.500000  0.243590  0.743590      0.002500
  0.500000  0.250000  0.750000      0.002500
  0.500000  0.250000  0.750000      0.002500
  0.496795  0.253205  0.750000      0.002500
  0.493590  0.256410  0.750000      0.002500
  0.490385  0.259615  0.750000      0.002500
  0.487179  0.262821  0.750000      0.002500
  0.483974  0.266026  0.750000      0.002500
  0.480769  0.269231  0.750000      0.002500
  0.477564  0.272436  0.750000      0.002500
  0.474359  0.275641  0.750000      0.002500
  0.471154  0.278846  0.750000      0.002500
  0.467949  0.282051  0.750000      0.002500
  0.464744  0.285256  0.750000      0.002500
  0.461538  0.288462  0.750000      0.002500
  0.458333  0.291667  0.750000      0.002500
  0.455128  0.294872  0.750000      0.002500
  0.451923  0.298077  0.750000      0.002500
  0.448718  0.301282  0.750000      0.002500
  0.445513  0.304487  0.750000      0.002500
  0.442308  0.307692  0.750000      0.002500
  0.439103  0.310897  0.750000      0.002500
  0.435897  0.314103  0.750000      0.002500
  0.432692  0.317308  0.750000      0.002500
  0.429487  0.320513  0.750000      0.002500
  0.426282  0.323718  0.750000      0.002500
  0.423077  0.326923  0.750000      0.002500
  0.419872  0.330128  0.750000      0.002500
  0.416667  0.333333  0.750000      0.002500
  0.413462  0.336538  0.750000      0.002500
  0.410256  0.339744  0.750000      0.002500
  0.407051  0.342949  0.750000      0.002500
  0.403846  0.346154  0.750000      0.002500
  0.400641  0.349359  0.750000      0.002500
  0.397436  0.352564  0.750000      0.002500
  0.394231  0.355769  0.750000      0.002500
  0.391026  0.358974  0.750000      0.002500
  0.387821  0.362179  0.750000      0.002500
  0.384615  0.365385  0.750000      0.002500
  0.381410  0.368590  0.750000      0.002500
  0.378205  0.371795  0.750000      0.002500
  0.375000  0.375000  0.750000      0.002500
  0.375000  0.375000  0.750000      0.002500
  0.365385  0.365385  0.730769      0.002500
  0.355769  0.355769  0.711538      0.002500
  0.346154  0.346154  0.692308      0.002500
  0.336538  0.336538  0.673077      0.002500
  0.326923  0.326923  0.653846      0.002500
  0.317308  0.317308  0.634615      0.002500
  0.307692  0.307692  0.615385      0.002500
  0.298077  0.298077  0.596154      0.002500
  0.288462  0.288462  0.576923      0.002500
  0.278846  0.278846  0.557692      0.002500
  0.269231  0.269231  0.538462      0.002500
  0.259615  0.259615  0.519231      0.002500
  0.250000  0.250000  0.500000      0.002500
  0.240385  0.240385  0.480769      0.002500
  0.230769  0.230769  0.461538      0.002500
  0.221154  0.221154  0.442308      0.002500
  0.211538  0.211538  0.423077      0.002500
  0.201923  0.201923  0.403846      0.002500
  0.192308  0.192308  0.384615      0.002500
  0.182692  0.182692  0.365385      0.002500
  0.173077  0.173077  0.346154      0.002500
  0.163462  0.163462  0.326923      0.002500
  0.153846  0.153846  0.307692      0.002500
  0.144231  0.144231  0.288462      0.002500
  0.134615  0.134615  0.269231      0.002500
  0.125000  0.125000  0.250000      0.002500
  0.115385  0.115385  0.230769      0.002500
  0.105769  0.105769  0.211538      0.002500
  0.096154  0.096154  0.192308      0.002500
  0.086538  0.086538  0.173077      0.002500
  0.076923  0.076923  0.153846      0.002500
  0.067308  0.067308  0.134615      0.002500
  0.057692  0.057692  0.115385      0.002500
  0.048077  0.048077  0.096154      0.002500
  0.038462  0.038462  0.076923      0.002500
  0.028846  0.028846  0.057692      0.002500
  0.019231  0.019231  0.038462      0.002500
  0.009615  0.009615  0.019231      0.002500
 -0.000000 -0.000000 -0.000000      0.002500
  0.000000  0.000000  0.000000      0.002500
  0.012821  0.012821  0.012821      0.002500
  0.025641  0.025641  0.025641      0.002500
  0.038462  0.038462  0.038462      0.002500
  0.051282  0.051282  0.051282      0.002500
  0.064103  0.064103  0.064103      0.002500
  0.076923  0.076923  0.076923      0.002500
  0.089744  0.089744  0.089744      0.002500
  0.102564  0.102564  0.102564      0.002500
  0.115385  0.115385  0.115385      0.002500
  0.128205  0.128205  0.128205      0.002500
  0.141026  0.141026  0.141026      0.002500
  0.153846  0.153846  0.153846      0.002500
  0.166667  0.166667  0.166667      0.002500
  0.179487  0.179487  0.179487      0.002500
  0.192308  0.192308  0.192308      0.002500
  0.205128  0.205128  0.205128      0.002500
  0.217949  0.217949  0.217949      0.002500
  0.230769  0.230769  0.230769      0.002500
  0.243590  0.243590  0.243590      0.002500
  0.256410  0.256410  0.256410      0.002500
  0.269231  0.269231  0.269231      0.002500
  0.282051  0.282051  0.282051      0.002500
  0.294872  0.294872  0.294872      0.002500
  0.307692  0.307692  0.307692      0.002500
  0.320513  0.320513  0.320513      0.002500
  0.333333  0.333333  0.333333      0.002500
  0.346154  0.346154  0.346154      0.002500
  0.358974  0.358974  0.358974      0.002500
  0.371795  0.371795  0.371795      0.002500
  0.384615  0.384615  0.384615      0.002500
  0.397436  0.397436  0.397436      0.002500
  0.410256  0.410256  0.410256      0.002500
  0.423077  0.423077  0.423077      0.002500
  0.435897  0.435897  0.435897      0.002500
  0.448718  0.448718  0.448718      0.002500
  0.461538  0.461538  0.461538      0.002500
  0.474359  0.474359  0.474359      0.002500
  0.487179  0.487179  0.487179      0.002500
  0.500000  0.500000  0.500000      0.002500
  0.500000  0.500000  0.500000      0.002500
  0.503205  0.493590  0.503205      0.002500
  0.506410  0.487179  0.506410      0.002500
  0.509615  0.480769  0.509615      0.002500
  0.512821  0.474359  0.512821      0.002500
  0.516026  0.467949  0.516026      0.002500
  0.519231  0.461538  0.519231      0.002500
  0.522436  0.455128  0.522436      0.002500
  0.525641  0.448718  0.525641      0.002500
  0.528846  0.442308  0.528846      0.002500
  0.532051  0.435897  0.532051      0.002500
  0.535256  0.429487  0.535256      0.002500
  0.538462  0.423077  0.538462      0.002500
  0.541667  0.416667  0.541667      0.002500
  0.544872  0.410256  0.544872      0.002500
  0.548077  0.403846  0.548077      0.002500
  0.551282  0.397436  0.551282      0.002500
  0.554487  0.391026  0.554487      0.002500
  0.557692  0.384615  0.557692      0.002500
  0.560897  0.378205  0.560897      0.002500
  0.564103  0.371795  0.564103      0.002500
  0.567308  0.365385  0.567308      0.002500
  0.570513  0.358974  0.570513      0.002500
  0.573718  0.352564  0.573718      0.002500
  0.576923  0.346154  0.576923      0.002500
  0.580128  0.339744  0.580128      0.002500
  0.583333  0.333333  0.583333      0.002500
  0.586538  0.326923  0.586538      0.002500
  0.589744  0.320513  0.589744      0.002500
  0.592949  0.314103  0.592949      0.002500
  0.596154  0.307692  0.596154      0.002500
  0.599359  0.301282  0.599359      0.002500
  0.602564  0.294872  0.602564      0.002500
  0.605769  0.288462  0.605769      0.002500
  0.608974  0.282051  0.608974      0.002500
  0.612179  0.275641  0.612179      0.002500
  0.615385  0.269231  0.615385      0.002500
  0.618590  0.262821  0.618590      0.002500
  0.621795  0.256410  0.621795      0.002500
  0.625000  0.250000  0.625000      0.002500
  0.625000  0.250000  0.625000      0.002500
  0.621795  0.250000  0.628205      0.002500
  0.618590  0.250000  0.631410      0.002500
  0.615385  0.250000  0.634615      0.002500
  0.612179  0.250000  0.637821      0.002500
  0.608974  0.250000  0.641026      0.002500
  0.605769  0.250000  0.644231      0.002500
  0.602564  0.250000  0.647436      0.002500
  0.599359  0.250000  0.650641      0.002500
  0.596154  0.250000  0.653846      0.002500
  0.592949  0.250000  0.657051      0.002500
  0.589744  0.250000  0.660256      0.002500
  0.586538  0.250000  0.663462      0.002500
  0.583333  0.250000  0.666667      0.002500
  0.580128  0.250000  0.669872      0.002500
  0.576923  0.250000  0.673077      0.002500
  0.573718  0.250000  0.676282      0.002500
  0.570513  0.250000  0.679487      0.002500
  0.567308  0.250000  0.682692      0.002500
  0.564103  0.250000  0.685897      0.002500
  0.560897  0.250000  0.689103      0.002500
  0.557692  0.250000  0.692308      0.002500
  0.554487  0.250000  0.695513      0.002500
  0.551282  0.250000  0.698718      0.002500
  0.548077  0.250000  0.701923      0.002500
  0.544872  0.250000  0.705128      0.002500
  0.541667  0.250000  0.708333      0.002500
  0.538462  0.250000  0.711538      0.002500
  0.535256  0.250000  0.714744      0.002500
  0.532051  0.250000  0.717949      0.002500
  0.528846  0.250000  0.721154      0.002500
  0.525641  0.250000  0.724359      0.002500
  0.522436  0.250000  0.727564      0.002500
  0.519231  0.250000  0.730769      0.002500
  0.516026  0.250000  0.733974      0.002500
  0.512821  0.250000  0.737179      0.002500
  0.509615  0.250000  0.740385      0.002500
  0.506410  0.250000  0.743590      0.002500
  0.503205  0.250000  0.746795      0.002500
  0.500000  0.250000  0.750000      0.002500
  0.500000  0.250000  0.750000      0.002500
  0.500000  0.256410  0.743590      0.002500
  0.500000  0.262821  0.737179      0.002500
  0.500000  0.269231  0.730769      0.002500
  0.500000  0.275641  0.724359      0.002500
  0.500000  0.282051  0.717949      0.002500
  0.500000  0.288462  0.711538      0.002500
  0.500000  0.294872  0.705128      0.002500
  0.500000  0.301282  0.698718      0.002500
  0.500000  0.307692  0.692308      0.002500
  0.500000  0.314103  0.685897      0.002500
  0.500000  0.320513  0.679487      0.002500
  0.500000  0.326923  0.673077      0.002500
  0.500000  0.333333  0.666667      0.002500
  0.500000  0.339744  0.660256      0.002500
  0.500000  0.346154  0.653846      0.002500
  0.500000  0.352564  0.647436      0.002500
  0.500000  0.358974  0.641026      0.002500
  0.500000  0.365385  0.634615      0.002500
  0.500000  0.371795  0.628205      0.002500
  0.500000  0.378205  0.621795      0.002500
  0.500000  0.384615  0.615385      0.002500
  0.500000  0.391026  0.608974      0.002500
  0.500000  0.397436  0.602564      0.002500
  0.500000  0.403846  0.596154      0.002500
  0.500000  0.410256  0.589744      0.002500
  0.500000  0.416667  0.583333      0.002500
  0.500000  0.423077  0.576923      0.002500
  0.500000  0.429487  0.570513      0.002500
  0.500000  0.435897  0.564103      0.002500
  0.500000  0.442308  0.557692      0.002500
  0.500000  0.448718  0.551282      0.002500
  0.500000  0.455128  0.544872      0.002500
  0.500000  0.461538  0.538462      0.002500
  0.500000  0.467949  0.532051      0.002500
  0.500000  0.474359  0.525641      0.002500
  0.500000  0.480769  0.519231      0.002500
  0.500000  0.487179  0.512821      0.002500
  0.500000  0.493590  0.506410      0.002500
  0.500000  0.500000  0.500000      0.002500
  0.500000  0.500000  0.500000      0.002500
  0.496795  0.496795  0.506410      0.002500
  0.493590  0.493590  0.512821      0.002500
  0.490385  0.490385  0.519231      0.002500
  0.487179  0.487179  0.525641      0.002500
  0.483974  0.483974  0.532051      0.002500
  0.480769  0.480769  0.538462      0.002500
  0.477564  0.477564  0.544872      0.002500
  0.474359  0.474359  0.551282      0.002500
  0.471154  0.471154  0.557692      0.002500
  0.467949  0.467949  0.564103      0.002500
  0.464744  0.464744  0.570513      0.002500
  0.461538  0.461538  0.576923      0.002500
  0.458333  0.458333  0.583333      0.002500
  0.455128  0.455128  0.589744      0.002500
  0.451923  0.451923  0.596154      0.002500
  0.448718  0.448718  0.602564      0.002500
  0.445513  0.445513  0.608974      0.002500
  0.442308  0.442308  0.615385      0.002500
  0.439103  0.439103  0.621795      0.002500
  0.435897  0.435897  0.628205      0.002500
  0.432692  0.432692  0.634615      0.002500
  0.429487  0.429487  0.641026      0.002500
  0.426282  0.426282  0.647436      0.002500
  0.423077  0.423077  0.653846      0.002500
  0.419872  0.419872  0.660256      0.002500
  0.416667  0.416667  0.666667      0.002500
  0.413462  0.413462  0.673077      0.002500
  0.410256  0.410256  0.679487      0.002500
  0.407051  0.407051  0.685897      0.002500
  0.403846  0.403846  0.692308      0.002500
  0.400641  0.400641  0.698718      0.002500
  0.397436  0.397436  0.705128      0.002500
  0.394231  0.394231  0.711538      0.002500
  0.391026  0.391026  0.717949      0.002500
  0.387821  0.387821  0.724359      0.002500
  0.384615  0.384615  0.730769      0.002500
  0.381410  0.381410  0.737179      0.002500
  0.378205  0.378205  0.743590      0.002500
  0.375000  0.375000  0.750000      0.002500
  0.625000  0.250000  0.625000      0.002500
  0.621795  0.243590  0.621795      0.002500
  0.618590  0.237179  0.618590      0.002500
  0.615385  0.230769  0.615385      0.002500
  0.612179  0.224359  0.612179      0.002500
  0.608974  0.217949  0.608974      0.002500
  0.605769  0.211538  0.605769      0.002500
  0.602564  0.205128  0.602564      0.002500
  0.599359  0.198718  0.599359      0.002500
  0.596154  0.192308  0.596154      0.002500
  0.592949  0.185897  0.592949      0.002500
  0.589744  0.179487  0.589744      0.002500
  0.586538  0.173077  0.586538      0.002500
  0.583333  0.166667  0.583333      0.002500
  0.580128  0.160256  0.580128      0.002500
  0.576923  0.153846  0.576923      0.002500
  0.573718  0.147436  0.573718      0.002500
  0.570513  0.141026  0.570513      0.002500
  0.567308  0.134615  0.567308      0.002500
  0.564103  0.128205  0.564103      0.002500
  0.560897  0.121795  0.560897      0.002500
  0.557692  0.115385  0.557692      0.002500
  0.554487  0.108974  0.554487      0.002500
  0.551282  0.102564  0.551282      0.002500
  0.548077  0.096154  0.548077      0.002500
  0.544872  0.089744  0.544872      0.002500
  0.541667  0.083333  0.541667      0.002500
  0.538462  0.076923  0.538462      0.002500
  0.535256  0.070513  0.535256      0.002500
  0.532051  0.064103  0.532051      0.002500
  0.528846  0.057692  0.528846      0.002500
  0.525641  0.051282  0.525641      0.002500
  0.522436  0.044872  0.522436      0.002500
  0.519231  0.038462  0.519231      0.002500
  0.516026  0.032051  0.516026      0.002500
  0.512821  0.025641  0.512821      0.002500
  0.509615  0.019231  0.509615      0.002500
  0.506410  0.012821  0.506410      0.002500
  0.503205  0.006410  0.503205      0.002500
  0.500000  0.000000  0.500000      0.002500

 Following cartesian coordinates:
            Coordinates               Weight
  0.000000  0.000000  0.000000      0.002500
  0.000000  0.004518 -0.000000      0.002500
  0.000000  0.009036 -0.000000      0.002500
 -0.000000  0.013554  0.000000      0.002500
  0.000000  0.018072 -0.000000      0.002500
  0.000000  0.022590 -0.000000      0.002500
 -0.000000  0.027108  0.000000      0.002500
  0.000000  0.031625 -0.000000      0.002500
  0.000000  0.036143 -0.000000      0.002500
  0.000000  0.040661 -0.000000      0.002500
  0.000000  0.045179 -0.000000      0.002500
  0.000000  0.049697 -0.000000      0.002500
 -0.000000  0.054215  0.000000      0.002500
  0.000000  0.058733 -0.000000      0.002500
  0.000000  0.063251 -0.000000      0.002500
  0.000000  0.067769 -0.000000      0.002500
  0.000000  0.072287 -0.000000      0.002500
 -0.000000  0.076805  0.000000      0.002500
  0.000000  0.081323 -0.000000      0.002500
 -0.000000  0.085841  0.000000      0.002500
  0.000000  0.090358 -0.000000      0.002500
 -0.000000  0.094876  0.000000      0.002500
  0.000000  0.099394 -0.000000      0.002500
 -0.000000  0.103912  0.000000      0.002500
 -0.000000  0.108430  0.000000      0.002500
 -0.000000  0.112948  0.000000      0.002500
  0.000000  0.117466 -0.000000      0.002500
 -0.000000  0.121984  0.000000      0.002500
  0.000000  0.126502 -0.000000      0.002500
 -0.000000  0.131020  0.000000      0.002500
  0.000000  0.135538 -0.000000      0.002500
  0.000000  0.140056 -0.000000      0.002500
  0.000000  0.144574 -0.000000      0.002500
 -0.000000  0.149091  0.000000      0.002500
 -0.000000  0.153609  0.000000      0.002500
  0.000000  0.158127 -0.000000      0.002500
  0.000000  0.162645 -0.000000      0.002500
 -0.000000  0.167163  0.000000      0.002500
 -0.000000  0.171681  0.000000      0.002500
  0.000000  0.176199  0.000000      0.002500
  0.000000  0.176199  0.000000      0.002500
  0.002259  0.176199  0.000000      0.002500
  0.004518  0.176199  0.000000      0.002500
  0.006777  0.176199 -0.000000      0.002500
  0.009036  0.176199 -0.000000      0.002500
  0.011295  0.176199  0.000000      0.002500
  0.013554  0.176199  0.000000      0.002500
  0.015813  0.176199  0.000000      0.002500
  0.018072  0.176199 -0.000000      0.002500
  0.020331  0.176199  0.000000      0.002500
  0.022590  0.176199 -0.000000      0.002500
  0.024849  0.176199  0.000000      0.002500
  0.027108  0.176199  0.000000      0.002500
  0.029367  0.176199 -0.000000      0.002500
  0.031625  0.176199 -0.000000      0.002500
  0.033884  0.176199  0.000000      0.002500
  0.036143  0.176199 -0.000000      0.002500
  0.038402  0.176199  0.000000      0.002500
  0.040661  0.176199 -0.000000      0.002500
  0.042920  0.176199 -0.000000      0.002500
  0.045179  0.176199 -0.000000      0.002500
  0.047438  0.176199  0.000000      0.002500
  0.049697  0.176199  0.000000      0.002500
  0.051956  0.176199 -0.000000      0.002500
  0.054215  0.176199  0.000000      0.002500
  0.056474  0.176199  0.000000      0.002500
  0.058733  0.176199  0.000000      0.002500
  0.060992  0.176199  0.000000      0.002500
  0.063251  0.176199 -0.000000      0.002500
  0.065510  0.176199 -0.000000      0.002500
  0.067769  0.176199  0.000000      0.002500
  0.070028  0.176199  0.000000      0.002500
  0.072287  0.176199  0.000000      0.002500
  0.074546  0.176199 -0.000000      0.002500
  0.076805  0.176199 -0.000000      0.002500
  0.079064  0.176199  0.000000      0.002500
  0.081323  0.176199  0.000000      0.002500
  0.083582  0.176199 -0.000000      0.002500
  0.085841  0.176199 -0.000000      0.002500
  0.088100  0.176199  0.000000      0.002500
  0.088100  0.176199  0.000000      0.002500
  0.089229  0.175070  0.000000      0.002500
  0.090358  0.173940  0.000000      0.002500
  0.091488  0.172811  0.000000      0.002500
  0.092617  0.171681  0.000000      0.002500
  0.093747  0.170552  0.000000      0.002500
  0.094876  0.169422  0.000000      0.002500
  0.096006  0.168293  0.000000      0.002500
  0.097135  0.167163  0.000000      0.002500
  0.098265  0.166034  0.000000      0.002500
  0.099394  0.164904  0.000000      0.002500
  0.100524  0.163775  0.000000      0.002500
  0.101653  0.162645  0.000000      0.002500
  0.102783  0.161516  0.000000      0.002500
  0.103912  0.160386  0.000000      0.002500
  0.105042  0.159257  0.000000      0.002500
  0.106171  0.158127  0.000000      0.002500
  0.107301  0.156998  0.000000      0.002500
  0.108430  0.155868  0.000000      0.002500
  0.109560  0.154739  0.000000      0.002500
  0.110689  0.153609  0.000000      0.002500
  0.111819  0.152480  0.000000      0.002500
  0.112948  0.151350  0.000000      0.002500
  0.114078  0.150221  0.000000      0.002500
  0.115207  0.149091  0.000000      0.002500
  0.116337  0.147962  0.000000      0.002500
  0.117466  0.146833  0.000000      0.002500
  0.118596  0.145703  0.000000      0.002500
  0.119725  0.144574  0.000000      0.002500
  0.120854  0.143444  0.000000      0.002500
  0.121984  0.142315  0.000000      0.002500
  0.123113  0.141185  0.000000      0.002500
  0.124243  0.140056  0.000000      0.002500
  0.125372  0.138926  0.000000      0.002500
  0.126502  0.137797  0.000000      0.002500
  0.127631  0.136667  0.000000      0.002500
  0.128761  0.135538  0.000000      0.002500
  0.129890  0.134408  0.000000      0.002500
  0.131020  0.133279  0.000000      0.002500
  0.132149  0.132149  0.000000      0.002500
  0.132149  0.132149  0.000000      0.002500
  0.128761  0.128761  0.000000      0.002500
  0.125372  0.125372 -0.000000      0.002500
  0.121984  0.121984  0.000000      0.002500
  0.118596  0.118596  0.000000      0.002500
  0.115207  0.115207  0.000000      0.002500
  0.111819  0.111819  0.000000      0.002500
  0.108430  0.108430  0.000000      0.002500
  0.105042  0.105042  0.000000      0.002500
  0.101653  0.101653  0.000000      0.002500
  0.098265  0.098265  0.000000      0.002500
  0.094876  0.094876  0.000000      0.002500
  0.091488  0.091488  0.000000      0.002500
  0.088100  0.088100  0.000000      0.002500
  0.084711  0.084711  0.000000      0.002500
  0.081323  0.081323 -0.000000      0.002500
  0.077934  0.077934 -0.000000      0.002500
  0.074546  0.074546  0.000000      0.002500
  0.071157  0.071157 -0.000000      0.002500
  0.067769  0.067769 -0.000000      0.002500
  0.064380  0.064380  0.000000      0.002500
  0.060992  0.060992  0.000000      0.002500
  0.057604  0.057604 -0.000000      0.002500
  0.054215  0.054215 -0.000000      0.002500
  0.050827  0.050827  0.000000      0.002500
  0.047438  0.047438  0.000000      0.002500
  0.044050  0.044050 -0.000000      0.002500
  0.040661  0.040661  0.000000      0.002500
  0.037273  0.037273  0.000000      0.002500
  0.033884  0.033884 -0.000000      0.002500
  0.030496  0.030496 -0.000000      0.002500
  0.027108  0.027108 -0.000000      0.002500
  0.023719  0.023719 -0.000000      0.002500
  0.020331  0.020331 -0.000000      0.002500
  0.016942  0.016942  0.000000      0.002500
  0.013554  0.013554  0.000000      0.002500
  0.010165  0.010165  0.000000      0.002500
  0.006777  0.006777 -0.000000      0.002500
  0.003388  0.003388  0.000000      0.002500
 -0.000000 -0.000000 -0.000000      0.002500
  0.000000  0.000000  0.000000      0.002500
  0.002259  0.002259  0.002259      0.002500
  0.004518  0.004518  0.004518      0.002500
  0.006777  0.006777  0.006777      0.002500
  0.009036  0.009036  0.009036      0.002500
  0.011295  0.011295  0.011295      0.002500
  0.013554  0.013554  0.013554      0.002500
  0.015813  0.015813  0.015813      0.002500
  0.018072  0.018072  0.018072      0.002500
  0.020331  0.020331  0.020331      0.002500
  0.022590  0.022590  0.022590      0.002500
  0.024849  0.024849  0.024849      0.002500
  0.027108  0.027108  0.027108      0.002500
  0.029367  0.029367  0.029367      0.002500
  0.031625  0.031625  0.031625      0.002500
  0.033884  0.033884  0.033884      0.002500
  0.036143  0.036143  0.036143      0.002500
  0.038402  0.038402  0.038402      0.002500
  0.040661  0.040661  0.040661      0.002500
  0.042920  0.042920  0.042920      0.002500
  0.045179  0.045179  0.045179      0.002500
  0.047438  0.047438  0.047438      0.002500
  0.049697  0.049697  0.049697      0.002500
  0.051956  0.051956  0.051956      0.002500
  0.054215  0.054215  0.054215      0.002500
  0.056474  0.056474  0.056474      0.002500
  0.058733  0.058733  0.058733      0.002500
  0.060992  0.060992  0.060992      0.002500
  0.063251  0.063251  0.063251      0.002500
  0.065510  0.065510  0.065510      0.002500
  0.067769  0.067769  0.067769      0.002500
  0.070028  0.070028  0.070028      0.002500
  0.072287  0.072287  0.072287      0.002500
  0.074546  0.074546  0.074546      0.002500
  0.076805  0.076805  0.076805      0.002500
  0.079064  0.079064  0.079064      0.002500
  0.081323  0.081323  0.081323      0.002500
  0.083582  0.083582  0.083582      0.002500
  0.085841  0.085841  0.085841      0.002500
  0.088100  0.088100  0.088100      0.002500
  0.088100  0.088100  0.088100      0.002500
  0.086970  0.090358  0.086970      0.002500
  0.085841  0.092617  0.085841      0.002500
  0.084711  0.094876  0.084711      0.002500
  0.083582  0.097135  0.083582      0.002500
  0.082452  0.099394  0.082452      0.002500
  0.081323  0.101653  0.081323      0.002500
  0.080193  0.103912  0.080193      0.002500
  0.079064  0.106171  0.079064      0.002500
  0.077934  0.108430  0.077934      0.002500
  0.076805  0.110689  0.076805      0.002500
  0.075675  0.112948  0.075675      0.002500
  0.074546  0.115207  0.074546      0.002500
  0.073416  0.117466  0.073416      0.002500
  0.072287  0.119725  0.072287      0.002500
  0.071157  0.121984  0.071157      0.002500
  0.070028  0.124243  0.070028      0.002500
  0.068898  0.126502  0.068898      0.002500
  0.067769  0.128761  0.067769      0.002500
  0.066639  0.131020  0.066639      0.002500
  0.065510  0.133279  0.065510      0.002500
  0.064380  0.135538  0.064380      0.002500
  0.063251  0.137797  0.063251      0.002500
  0.062121  0.140056  0.062121      0.002500
  0.060992  0.142315  0.060992      0.002500
  0.059862  0.144574  0.059862      0.002500
  0.058733  0.146833  0.058733      0.002500
  0.057604  0.149091  0.057604      0.002500
  0.056474  0.151350  0.056474      0.002500
  0.055345  0.153609  0.055345      0.002500
  0.054215  0.155868  0.054215      0.002500
  0.053086  0.158127  0.053086      0.002500
  0.051956  0.160386  0.051956      0.002500
  0.050827  0.162645  0.050827      0.002500
  0.049697  0.164904  0.049697      0.002500
  0.048568  0.167163  0.048568      0.002500
  0.047438  0.169422  0.047438      0.002500
  0.046309  0.171681  0.046309      0.002500
  0.045179  0.173940  0.045179      0.002500
  0.044050  0.176199  0.044050      0.002500
  0.044050  0.176199  0.044050      0.002500
  0.045179  0.176199  0.042920      0.002500
  0.046309  0.176199  0.041791      0.002500
  0.047438  0.176199  0.040661      0.002500
  0.048568  0.176199  0.039532      0.002500
  0.049697  0.176199  0.038402      0.002500
  0.050827  0.176199  0.037273      0.002500
  0.051956  0.176199  0.036143      0.002500
  0.053086  0.176199  0.035014      0.002500
  0.054215  0.176199  0.033884      0.002500
  0.055345  0.176199  0.032755      0.002500
  0.056474  0.176199  0.031625      0.002500
  0.057604  0.176199  0.030496      0.002500
  0.058733  0.176199  0.029367      0.002500
  0.059862  0.176199  0.028237      0.002500
  0.060992  0.176199  0.027108      0.002500
  0.062121  0.176199  0.025978      0.002500
  0.063251  0.176199  0.024849      0.002500
  0.064380  0.176199  0.023719      0.002500
  0.065510  0.176199  0.022590      0.002500
  0.066639  0.176199  0.021460      0.002500
  0.067769  0.176199  0.020331      0.002500
  0.068898  0.176199  0.019201      0.002500
  0.070028  0.176199  0.018072      0.002500
  0.071157  0.176199  0.016942      0.002500
  0.072287  0.176199  0.015813      0.002500
  0.073416  0.176199  0.014683      0.002500
  0.074546  0.176199  0.013554      0.002500
  0.075675  0.176199  0.012424      0.002500
  0.076805  0.176199  0.011295      0.002500
  0.077934  0.176199  0.010165      0.002500
  0.079064  0.176199  0.009036      0.002500
  0.080193  0.176199  0.007906      0.002500
  0.081323  0.176199  0.006777      0.002500
  0.082452  0.176199  0.005647      0.002500
  0.083582  0.176199  0.004518      0.002500
  0.084711  0.176199  0.003388      0.002500
  0.085841  0.176199  0.002259      0.002500
  0.086970  0.176199  0.001129      0.002500
  0.088100  0.176199  0.000000      0.002500
  0.088100  0.176199  0.000000      0.002500
  0.088100  0.173940  0.002259      0.002500
  0.088100  0.171681  0.004518      0.002500
  0.088100  0.169422  0.006777      0.002500
  0.088100  0.167163  0.009036      0.002500
  0.088100  0.164904  0.011295      0.002500
  0.088100  0.162645  0.013554      0.002500
  0.088100  0.160386  0.015813      0.002500
  0.088100  0.158127  0.018072      0.002500
  0.088100  0.155868  0.020331      0.002500
  0.088100  0.153609  0.022590      0.002500
  0.088100  0.151350  0.024849      0.002500
  0.088100  0.149091  0.027108      0.002500
  0.088100  0.146833  0.029367      0.002500
  0.088100  0.144574  0.031625      0.002500
  0.088100  0.142315  0.033884      0.002500
  0.088100  0.140056  0.036143      0.002500
  0.088100  0.137797  0.038402      0.002500
  0.088100  0.135538  0.040661      0.002500
  0.088100  0.133279  0.042920      0.002500
  0.088100  0.131020  0.045179      0.002500
  0.088100  0.128761  0.047438      0.002500
  0.088100  0.126502  0.049697      0.002500
  0.088100  0.124243  0.051956      0.002500
  0.088100  0.121984  0.054215      0.002500
  0.088100  0.119725  0.056474      0.002500
  0.088100  0.117466  0.058733      0.002500
  0.088100  0.115207  0.060992      0.002500
  0.088100  0.112948  0.063251      0.002500
  0.088100  0.110689  0.065510      0.002500
  0.088100  0.108430  0.067769      0.002500
  0.088100  0.106171  0.070028      0.002500
  0.088100  0.103912  0.072287      0.002500
  0.088100  0.101653  0.074546      0.002500
  0.088100  0.099394  0.076805      0.002500
  0.088100  0.097135  0.079064      0.002500
  0.088100  0.094876  0.081323      0.002500
  0.088100  0.092617  0.083582      0.002500
  0.088100  0.090358  0.085841      0.002500
  0.088100  0.088100  0.088100      0.002500
  0.088100  0.088100  0.088100      0.002500
  0.089229  0.089229  0.085841      0.002500
  0.090358  0.090358  0.083582      0.002500
  0.091488  0.091488  0.081323      0.002500
  0.092617  0.092617  0.079064      0.002500
  0.093747  0.093747  0.076805      0.002500
  0.094876  0.094876  0.074546      0.002500
  0.096006  0.096006  0.072287      0.002500
  0.097135  0.097135  0.070028      0.002500
  0.098265  0.098265  0.067769      0.002500
  0.099394  0.099394  0.065510      0.002500
  0.100524  0.100524  0.063251      0.002500
  0.101653  0.101653  0.060992      0.002500
  0.102783  0.102783  0.058733      0.002500
  0.103912  0.103912  0.056474      0.002500
  0.105042  0.105042  0.054215      0.002500
  0.106171  0.106171  0.051956      0.002500
  0.107301  0.107301  0.049697      0.002500
  0.108430  0.108430  0.047438      0.002500
  0.109560  0.109560  0.045179      0.002500
  0.110689  0.110689  0.042920      0.002500
  0.111819  0.111819  0.040661      0.002500
  0.112948  0.112948  0.038402      0.002500
  0.114078  0.114078  0.036143      0.002500
  0.115207  0.115207  0.033884      0.002500
  0.116337  0.116337  0.031625      0.002500
  0.117466  0.117466  0.029367      0.002500
  0.118596  0.118596  0.027108      0.002500
  0.119725  0.119725  0.024849      0.002500
  0.120854  0.120854  0.022590      0.002500
  0.121984  0.121984  0.020331      0.002500
  0.123113  0.123113  0.018072      0.002500
  0.124243  0.124243  0.015813      0.002500
  0.125372  0.125372  0.013554      0.002500
  0.126502  0.126502  0.011295      0.002500
  0.127631  0.127631  0.009036      0.002500
  0.128761  0.128761  0.006777      0.002500
  0.129890  0.129890  0.004518      0.002500
  0.131020  0.131020  0.002259      0.002500
  0.132149  0.132149  0.000000      0.002500
  0.044050  0.176199  0.044050      0.002500
  0.042920  0.176199  0.042920      0.002500
  0.041791  0.176199  0.041791      0.002500
  0.040661  0.176199  0.040661      0.002500
  0.039532  0.176199  0.039532      0.002500
  0.038402  0.176199  0.038402      0.002500
  0.037273  0.176199  0.037273      0.002500
  0.036143  0.176199  0.036143      0.002500
  0.035014  0.176199  0.035014      0.002500
  0.033884  0.176199  0.033884      0.002500
  0.032755  0.176199  0.032755      0.002500
  0.031625  0.176199  0.031625      0.002500
  0.030496  0.176199  0.030496      0.002500
  0.029367  0.176199  0.029367      0.002500
  0.028237  0.176199  0.028237      0.002500
  0.027108  0.176199  0.027108      0.002500
  0.025978  0.176199  0.025978      0.002500
  0.024849  0.176199  0.024849      0.002500
  0.023719  0.176199  0.023719      0.002500
  0.022590  0.176199  0.022590      0.002500
  0.021460  0.176199  0.021460      0.002500
  0.020331  0.176199  0.020331      0.002500
  0.019201  0.176199  0.019201      0.002500
  0.018072  0.176199  0.018072      0.002500
  0.016942  0.176199  0.016942      0.002500
  0.015813  0.176199  0.015813      0.002500
  0.014683  0.176199  0.014683      0.002500
  0.013554  0.176199  0.013554      0.002500
  0.012424  0.176199  0.012424      0.002500
  0.011295  0.176199  0.011295      0.002500
  0.010165  0.176199  0.010165      0.002500
  0.009036  0.176199  0.009036      0.002500
  0.007906  0.176199  0.007906      0.002500
  0.006777  0.176199  0.006777      0.002500
  0.005647  0.176199  0.005647      0.002500
  0.004518  0.176199  0.004518      0.002500
  0.003388  0.176199  0.003388      0.002500
  0.002259  0.176199  0.002259      0.002500
  0.001129  0.176199  0.001129      0.002500
  0.000000  0.176199  0.000000      0.002500
 


--------------------------------------------------------------------------------------------------------




 Dimension of arrays:
   k-points           NKPTS =    400   k-points in BZ     NKDIM =    400   number of bands    NBANDS=     16
   number of dos      NEDOS =    301   number of ions     NIONS =      2
   non local maximal  LDIM  =      5   non local SUM 2l+1 LMDIM =     13
   total plane-waves  NPLWV =   2744
   max r-space proj   IRMAX =      1   max aug-charges    IRDMAX=   3462
   dimension x,y,z NGX =    14 NGY =   14 NGZ =   14
   dimension x,y,z NGXF=    28 NGYF=   28 NGZF=   28
   support grid    NGXF=    28 NGYF=   28 NGZF=   28
   ions per type =               2
   NGX,Y,Z   is equivalent  to a cutoff of   5.80,  5.80,  5.80 a.u.
   NGXF,Y,Z  is equivalent  to a cutoff of  11.60, 11.60, 11.60 a.u.

 SYSTEM =  fcc Si                                  
 POSCAR =  diamond_Ge_2                            

 Startparameter for this run:
   NWRITE =      2    write-flag & timer
   PREC   = normal    normal or accurate (medium, high low for compatibility)
   ISTART =      0    job   : 0-new  1-cont  2-samecut
   ICHARG =     11    charge: 1-file 2-atom 10-const
   ISPIN  =      1    spin polarized calculation?
   LNONCOLLINEAR =      F non collinear calculations
   LSORBIT =      F    spin-orbit coupling
   INIWAV =      1    electr: 0-lowe 1-rand  2-diag
   LASPH  =      F    aspherical Exc in radial PAW
 Electronic Relaxation 1
   ENCUT  =  173.8 eV  12.77 Ry    3.57 a.u.   4.31  4.31  4.31*2*pi/ulx,y,z
   ENINI  =  173.8     initial cutoff
   ENAUG  =  385.8 eV  augmentation charge cutoff
   NELM   =     60;   NELMIN=  2; NELMDL= -5     # of ELM steps 
   EDIFF  = 0.1E-03   stopping-criterion for ELM
   LREAL  =      F    real-space projection
   NLSPLINE    = F    spline interpolate recip. space projectors
   LCOMPAT=      F    compatible to vasp.4.4
   GGA_COMPAT  = T    GGA compatible to vasp.4.4-vasp.4.6
   LMAXPAW     = -100 max onsite density
   LMAXMIX     =    2 max onsite mixed and CHGCAR
   VOSKOWN=      0    Vosko Wilk Nusair interpolation
   ROPT   =    0.00000
 Ionic relaxation
   EDIFFG = 0.1E-02   stopping-criterion for IOM
   NSW    =      0    number of steps for IOM
   NBLOCK =      1;   KBLOCK =      1    inner block; outer block 
   IBRION =     -1    ionic relax: 0-MD 1-quasi-New 2-CG
   NFREE  =      0    steps in history (QN), initial steepest desc. (CG)
   ISIF   =      2    stress and relaxation
   IWAVPR =     10    prediction:  0-non 1-charg 2-wave 3-comb
   ISYM   =      2    0-nonsym 1-usesym 2-fastsym
   LCORR  =      T    Harris-Foulkes like correction to forces

   POTIM  = 0.5000    time-step for ionic-motion
   TEIN   =    0.0    initial temperature
   TEBEG  =    0.0;   TEEND  =   0.0 temperature during run
   SMASS  =  -3.00    Nose mass-parameter (am)
   estimated Nose-frequenzy (Omega)   =  0.10E-29 period in steps = 0.13E+47 mass=  -0.368E-27a.u.
   SCALEE = 1.0000    scale energy and forces
   NPACO  =    256;   APACO  = 10.0  distance and # of slots for P.C.
   PSTRESS=    0.0 pullay stress

  Mass of Ions in am
   POMASS =  72.61
  Ionic Valenz
   ZVAL   =   4.00
  Atomic Wigner-Seitz radii
   RWIGS  =  -1.00
  virtual crystal weights 
   VCA    =   1.00
   NELECT =       8.0000    total number of electrons
   NUPDOWN=      -1.0000    fix difference up-down

 DOS related values:
   EMIN   =  10.00;   EMAX   =-10.00  energy-range for DOS
   EFERMI =   0.00;   METHOD = LEGACY      
   ISMEAR =     0;   SIGMA  =   0.10  broadening in eV -4-tet -1-fermi 0-gaus

 Electronic relaxation 2 (details)
   IALGO  =     38    algorithm
   LDIAG  =      T    sub-space diagonalisation (order eigenvalues)
   LSUBROT=      F    optimize rotation matrix (better conditioning)
   TURBO    =      0    0=normal 1=particle mesh
   IRESTART =      0    0=no restart 2=restart with 2 vectors
   NREBOOT  =      0    no. of reboots
   NMIN     =      0    reboot dimension
   EREF     =   0.00    reference energy to select bands
   IMIX   =      4    mixing-type and parameters
     AMIX     =   0.40;   BMIX     =  1.00
     AMIX_MAG =   1.60;   BMIX_MAG =  1.00
     AMIN     =   0.10
     WC   =   100.;   INIMIX=   1;  MIXPRE=   1;  MAXMIX= -45

 Intra band minimization:
   WEIMIN = 0.0000     energy-eigenvalue tresh-hold
   EBREAK =  0.16E-05  absolut break condition
   DEPER  =   0.30     relativ break condition  

   TIME   =   0.40     timestep for ELM

  volume/ion in A,a.u.               =      22.85       154.20
  Fermi-wavevector in a.u.,A,eV,Ry     =   0.915788  1.730589 11.410770  0.838668
  Thomas-Fermi vector in A             =   2.040570
 
 Write flags
   LWAVE        =      T    write WAVECAR
   LDOWNSAMPLE  =      F    k-point downsampling of WAVECAR
   LCHARG       =      T    write CHGCAR
   LVTOT        =      F    write LOCPOT, total local potential
   LVHAR        =      F    write LOCPOT, Hartree potential only
   LELF         =      F    write electronic localiz. function (ELF)
   LORBIT       =     11    0 simple, 1 ext, 2 COOP (PROOUT), +10 PAW based schemes


 Dipole corrections
   LMONO  =      F    monopole corrections only (constant potential shift)
   LDIPOL =      F    correct potential (dipole corrections)
   IDIPOL =      0    1-x, 2-y, 3-z, 4-all directions 
   EPSILON=  1.0000000 bulk dielectric constant

 Exchange correlation treatment:
   GGA     =    --    GGA type
   LEXCH   =     8    internal setting for exchange type
   LIBXC   =     F    Libxc                    
   VOSKOWN =     0    Vosko Wilk Nusair interpolation
   LHFCALC =     F    Hartree Fock is set to
   LHFONE  =     F    Hartree Fock one center treatment
   AEXX    =    0.0000 exact exchange contribution

 Linear response parameters
   LEPSILON=     F    determine dielectric tensor
   LRPA    =     F    only Hartree local field effects (RPA)
   LNABLA  =     F    use nabla operator in PAW spheres
   LVEL    =     F    velocity operator in full k-point grid
   CSHIFT  =0.1000    complex shift for real part using Kramers Kronig
   OMEGAMAX=  -1.0    maximum frequency
   DEG_THRESHOLD= 0.2000000E-02 threshold for treating states as degnerate
   RTIME   =   -0.100 relaxation time in fs
  (WPLASMAI=    0.000 imaginary part of plasma frequency in eV, 0.658/RTIME)
   DFIELD  = 0.0000000 0.0000000 0.0000000 field for delta impulse in time
 
  Optional k-point grid parameters
   LKPOINTS_OPT  =     F    use optional k-point grid
   KPOINTS_OPT_MODE=     1    mode for optional k-point grid
 
 Orbital magnetization related:
   ORBITALMAG=     F  switch on orbital magnetization
   LCHIMAG   =     F  perturbation theory with respect to B field
   DQ        =  0.001000  dq finite difference perturbation B field
   LLRAUG    =     F  two centre corrections for induced B field
   LBONE     =     F  B-component reconstruction in AE one-centre
   LVGVCALC  =     T  calculate vGv susceptibility
   LVGVAPPL  =     F  apply vGv susceptibility instead of pGv for G=0

 Random number generation:
   RANDOM_GENERATOR = DEFAULT
   PCG_SEED         = not used


--------------------------------------------------------------------------------------------------------


 Static calculation
 charge density and potential remain constant during run
 non-spin polarized calculation
 Variant of blocked Davidson
 Davidson routine will perform the subspace rotation
 perform sub-space diagonalisation
    after iterative eigenvector-optimisation
 no mixing
 using additional bands           12
 reciprocal scheme for non local part
 use partial core corrections
 calculate Harris-corrections to forces 
   (improved forces if not selfconsistent)
 use gradient corrections 
 WARNING: stress and forces are not correct
  (second derivative of E(xc) not defined)
 use of overlap-Matrix (Vanderbilt PP)
 Gauss-broadening in eV      SIGMA  =   0.10


--------------------------------------------------------------------------------------------------------


  energy-cutoff  :      173.81
  volume of cell :       45.70
      direct lattice vectors                 reciprocal lattice vectors
     0.000000000  2.837700000  2.837700000    -0.176199034  0.176199034  0.176199034
     2.837700000  0.000000000  2.837700000     0.176199034 -0.176199034  0.176199034
     2.837700000  2.837700000  0.000000000     0.176199034  0.176199034 -0.176199034

  length of vectors
     4.013113826  4.013113826  4.013113826     0.305185680  0.305185680  0.305185680


 
 k-points in units of 2pi/SCALE and weight: Line_mode KPOINTS file                  
   0.00000000  0.00000000  0.00000000       0.003
   0.00000000  0.00451792 -0.00000000       0.003
   0.00000000  0.00903585 -0.00000000       0.003
  -0.00000000  0.01355377  0.00000000       0.003
   0.00000000  0.01807170 -0.00000000       0.003
   0.00000000  0.02258962 -0.00000000       0.003
  -0.00000000  0.02710754  0.00000000       0.003
   0.00000000  0.03162547 -0.00000000       0.003
   0.00000000  0.03614339 -0.00000000       0.003
   0.00000000  0.04066132 -0.00000000       0.003
   0.00000000  0.04517924 -0.00000000       0.003
   0.00000000  0.04969716 -0.00000000       0.003
  -0.00000000  0.05421509  0.00000000       0.003
   0.00000000  0.05873301 -0.00000000       0.003
   0.00000000  0.06325094 -0.00000000       0.003
   0.00000000  0.06776886 -0.00000000       0.003
   0.00000000  0.07228678 -0.00000000       0.003
  -0.00000000  0.07680471  0.00000000       0.003
   0.00000000  0.08132263 -0.00000000       0.003
  -0.00000000  0.08584056  0.00000000       0.003
   0.00000000  0.09035848 -0.00000000       0.003
  -0.00000000  0.09487640  0.00000000       0.003
   0.00000000  0.09939433 -0.00000000       0.003
  -0.00000000  0.10391225  0.00000000       0.003
  -0.00000000  0.10843018  0.00000000       0.003
  -0.00000000  0.11294810  0.00000000       0.003
   0.00000000  0.11746602 -0.00000000       0.003
  -0.00000000  0.12198395  0.00000000       0.003
   0.00000000  0.12650187 -0.00000000       0.003
  -0.00000000  0.13101979  0.00000000       0.003
   0.00000000  0.13553772 -0.00000000       0.003
   0.00000000  0.14005564 -0.00000000       0.003
   0.00000000  0.14457357 -0.00000000       0.003
  -0.00000000  0.14909149  0.00000000       0.003
  -0.00000000  0.15360941  0.00000000       0.003
   0.00000000  0.15812734 -0.00000000       0.003
   0.00000000  0.16264526 -0.00000000       0.003
  -0.00000000  0.16716319  0.00000000       0.003
  -0.00000000  0.17168111  0.00000000       0.003
   0.00000000  0.17619903  0.00000000       0.003
   0.00000000  0.17619903  0.00000000       0.003
   0.00225896  0.17619903  0.00000000       0.003
   0.00451792  0.17619903  0.00000000       0.003
   0.00677689  0.17619903 -0.00000000       0.003
   0.00903585  0.17619903 -0.00000000       0.003
   0.01129481  0.17619903  0.00000000       0.003
   0.01355377  0.17619903  0.00000000       0.003
   0.01581273  0.17619903  0.00000000       0.003
   0.01807170  0.17619903 -0.00000000       0.003
   0.02033066  0.17619903  0.00000000       0.003
   0.02258962  0.17619903 -0.00000000       0.003
   0.02484858  0.17619903  0.00000000       0.003
   0.02710754  0.17619903  0.00000000       0.003
   0.02936651  0.17619903 -0.00000000       0.003
   0.03162547  0.17619903 -0.00000000       0.003
   0.03388443  0.17619903  0.00000000       0.003
   0.03614339  0.17619903 -0.00000000       0.003
   0.03840235  0.17619903  0.00000000       0.003
   0.04066132  0.17619903 -0.00000000       0.003
   0.04292028  0.17619903 -0.00000000       0.003
   0.04517924  0.17619903 -0.00000000       0.003
   0.04743820  0.17619903  0.00000000       0.003
   0.04969716  0.17619903  0.00000000       0.003
   0.05195613  0.17619903 -0.00000000       0.003
   0.05421509  0.17619903  0.00000000       0.003
   0.05647405  0.17619903  0.00000000       0.003
   0.05873301  0.17619903 -0.00000000       0.003
   0.06099197  0.17619903  0.00000000       0.003
   0.06325094  0.17619903 -0.00000000       0.003
   0.06550990  0.17619903 -0.00000000       0.003
   0.06776886  0.17619903 -0.00000000       0.003
   0.07002782  0.17619903  0.00000000       0.003
   0.07228678  0.17619903  0.00000000       0.003
   0.07454575  0.17619903 -0.00000000       0.003
   0.07680471  0.17619903  0.00000000       0.003
   0.07906367  0.17619903 -0.00000000       0.003
   0.08132263  0.17619903  0.00000000       0.003
   0.08358159  0.17619903 -0.00000000       0.003
   0.08584056  0.17619903 -0.00000000       0.003
   0.08809952  0.17619903  0.00000000       0.003
   0.08809952  0.17619903  0.00000000       0.003
   0.08922900  0.17506955  0.00000000       0.003
   0.09035848  0.17394007  0.00000000       0.003
   0.09148796  0.17281059  0.00000000       0.003
   0.09261744  0.17168111  0.00000000       0.003
   0.09374692  0.17055163  0.00000000       0.003
   0.09487640  0.16942215  0.00000000       0.003
   0.09600588  0.16829267  0.00000000       0.003
   0.09713537  0.16716319  0.00000000       0.003
   0.09826485  0.16603371  0.00000000       0.003
   0.09939433  0.16490422  0.00000000       0.003
   0.10052381  0.16377474  0.00000000       0.003
   0.10165329  0.16264526  0.00000000       0.003
   0.10278277  0.16151578  0.00000000       0.003
   0.10391225  0.16038630  0.00000000       0.003
   0.10504173  0.15925682  0.00000000       0.003
   0.10617121  0.15812734  0.00000000       0.003
   0.10730069  0.15699786  0.00000000       0.003
   0.10843018  0.15586838  0.00000000       0.003
   0.10955966  0.15473890  0.00000000       0.003
   0.11068914  0.15360941  0.00000000       0.003
   0.11181862  0.15247993  0.00000000       0.003
   0.11294810  0.15135045  0.00000000       0.003
   0.11407758  0.15022097  0.00000000       0.003
   0.11520706  0.14909149  0.00000000       0.003
   0.11633654  0.14796201  0.00000000       0.003
   0.11746602  0.14683253  0.00000000       0.003
   0.11859550  0.14570305  0.00000000       0.003
   0.11972498  0.14457357  0.00000000       0.003
   0.12085447  0.14344409  0.00000000       0.003
   0.12198395  0.14231460  0.00000000       0.003
   0.12311343  0.14118512  0.00000000       0.003
   0.12424291  0.14005564  0.00000000       0.003
   0.12537239  0.13892616  0.00000000       0.003
   0.12650187  0.13779668  0.00000000       0.003
   0.12763135  0.13666720  0.00000000       0.003
   0.12876083  0.13553772  0.00000000       0.003
   0.12989031  0.13440824  0.00000000       0.003
   0.13101979  0.13327876  0.00000000       0.003
   0.13214928  0.13214928  0.00000000       0.003
   0.13214928  0.13214928  0.00000000       0.003
   0.12876083  0.12876083  0.00000000       0.003
   0.12537239  0.12537239 -0.00000000       0.003
   0.12198395  0.12198395  0.00000000       0.003
   0.11859550  0.11859550  0.00000000       0.003
   0.11520706  0.11520706  0.00000000       0.003
   0.11181862  0.11181862  0.00000000       0.003
   0.10843018  0.10843018  0.00000000       0.003
   0.10504173  0.10504173  0.00000000       0.003
   0.10165329  0.10165329  0.00000000       0.003
   0.09826485  0.09826485  0.00000000       0.003
   0.09487640  0.09487640  0.00000000       0.003
   0.09148796  0.09148796  0.00000000       0.003
   0.08809952  0.08809952  0.00000000       0.003
   0.08471107  0.08471107  0.00000000       0.003
   0.08132263  0.08132263 -0.00000000       0.003
   0.07793419  0.07793419 -0.00000000       0.003
   0.07454575  0.07454575  0.00000000       0.003
   0.07115730  0.07115730 -0.00000000       0.003
   0.06776886  0.06776886 -0.00000000       0.003
   0.06438042  0.06438042  0.00000000       0.003
   0.06099197  0.06099197  0.00000000       0.003
   0.05760353  0.05760353 -0.00000000       0.003
   0.05421509  0.05421509 -0.00000000       0.003
   0.05082664  0.05082664  0.00000000       0.003
   0.04743820  0.04743820  0.00000000       0.003
   0.04404976  0.04404976 -0.00000000       0.003
   0.04066132  0.04066132  0.00000000       0.003
   0.03727287  0.03727287  0.00000000       0.003
   0.03388443  0.03388443 -0.00000000       0.003
   0.03049599  0.03049599 -0.00000000       0.003
   0.02710754  0.02710754 -0.00000000       0.003
   0.02371910  0.02371910 -0.00000000       0.003
   0.02033066  0.02033066 -0.00000000       0.003
   0.01694221  0.01694221  0.00000000       0.003
   0.01355377  0.01355377  0.00000000       0.003
   0.01016533  0.01016533  0.00000000       0.003
   0.00677689  0.00677689 -0.00000000       0.003
   0.00338844  0.00338844  0.00000000       0.003
  -0.00000000 -0.00000000 -0.00000000       0.003
   0.00000000  0.00000000  0.00000000       0.003
   0.00225896  0.00225896  0.00225896       0.003
   0.00451792  0.00451792  0.00451792       0.003
   0.00677689  0.00677689  0.00677689       0.003
   0.00903585  0.00903585  0.00903585       0.003
   0.01129481  0.01129481  0.01129481       0.003
   0.01355377  0.01355377  0.01355377       0.003
   0.01581273  0.01581273  0.01581273       0.003
   0.01807170  0.01807170  0.01807170       0.003
   0.02033066  0.02033066  0.02033066       0.003
   0.02258962  0.02258962  0.02258962       0.003
   0.02484858  0.02484858  0.02484858       0.003
   0.02710754  0.02710754  0.02710754       0.003
   0.02936651  0.02936651  0.02936651       0.003
   0.03162547  0.03162547  0.03162547       0.003
   0.03388443  0.03388443  0.03388443       0.003
   0.03614339  0.03614339  0.03614339       0.003
   0.03840235  0.03840235  0.03840235       0.003
   0.04066132  0.04066132  0.04066132       0.003
   0.04292028  0.04292028  0.04292028       0.003
   0.04517924  0.04517924  0.04517924       0.003
   0.04743820  0.04743820  0.04743820       0.003
   0.04969716  0.04969716  0.04969716       0.003
   0.05195613  0.05195613  0.05195613       0.003
   0.05421509  0.05421509  0.05421509       0.003
   0.05647405  0.05647405  0.05647405       0.003
   0.05873301  0.05873301  0.05873301       0.003
   0.06099197  0.06099197  0.06099197       0.003
   0.06325094  0.06325094  0.06325094       0.003
   0.06550990  0.06550990  0.06550990       0.003
   0.06776886  0.06776886  0.06776886       0.003
   0.07002782  0.07002782  0.07002782       0.003
   0.07228678  0.07228678  0.07228678       0.003
   0.07454575  0.07454575  0.07454575       0.003
   0.07680471  0.07680471  0.07680471       0.003
   0.07906367  0.07906367  0.07906367       0.003
   0.08132263  0.08132263  0.08132263       0.003
   0.08358159  0.08358159  0.08358159       0.003
   0.08584056  0.08584056  0.08584056       0.003
   0.08809952  0.08809952  0.08809952       0.003
   0.08809952  0.08809952  0.08809952       0.003
   0.08697004  0.09035848  0.08697004       0.003
   0.08584056  0.09261744  0.08584056       0.003
   0.08471107  0.09487640  0.08471107       0.003
   0.08358159  0.09713537  0.08358159       0.003
   0.08245211  0.09939433  0.08245211       0.003
   0.08132263  0.10165329  0.08132263       0.003
   0.08019315  0.10391225  0.08019315       0.003
   0.07906367  0.10617121  0.07906367       0.003
   0.07793419  0.10843018  0.07793419       0.003
   0.07680471  0.11068914  0.07680471       0.003
   0.07567523  0.11294810  0.07567523       0.003
   0.07454575  0.11520706  0.07454575       0.003
   0.07341626  0.11746602  0.07341626       0.003
   0.07228678  0.11972498  0.07228678       0.003
   0.07115730  0.12198395  0.07115730       0.003
   0.07002782  0.12424291  0.07002782       0.003
   0.06889834  0.12650187  0.06889834       0.003
   0.06776886  0.12876083  0.06776886       0.003
   0.06663938  0.13101979  0.06663938       0.003
   0.06550990  0.13327876  0.06550990       0.003
   0.06438042  0.13553772  0.06438042       0.003
   0.06325094  0.13779668  0.06325094       0.003
   0.06212145  0.14005564  0.06212145       0.003
   0.06099197  0.14231460  0.06099197       0.003
   0.05986249  0.14457357  0.05986249       0.003
   0.05873301  0.14683253  0.05873301       0.003
   0.05760353  0.14909149  0.05760353       0.003
   0.05647405  0.15135045  0.05647405       0.003
   0.05534457  0.15360941  0.05534457       0.003
   0.05421509  0.15586838  0.05421509       0.003
   0.05308561  0.15812734  0.05308561       0.003
   0.05195613  0.16038630  0.05195613       0.003
   0.05082664  0.16264526  0.05082664       0.003
   0.04969716  0.16490422  0.04969716       0.003
   0.04856768  0.16716319  0.04856768       0.003
   0.04743820  0.16942215  0.04743820       0.003
   0.04630872  0.17168111  0.04630872       0.003
   0.04517924  0.17394007  0.04517924       0.003
   0.04404976  0.17619903  0.04404976       0.003
   0.04404976  0.17619903  0.04404976       0.003
   0.04517924  0.17619903  0.04292028       0.003
   0.04630872  0.17619903  0.04179080       0.003
   0.04743820  0.17619903  0.04066132       0.003
   0.04856768  0.17619903  0.03953183       0.003
   0.04969716  0.17619903  0.03840235       0.003
   0.05082664  0.17619903  0.03727287       0.003
   0.05195613  0.17619903  0.03614339       0.003
   0.05308561  0.17619903  0.03501391       0.003
   0.05421509  0.17619903  0.03388443       0.003
   0.05534457  0.17619903  0.03275495       0.003
   0.05647405  0.17619903  0.03162547       0.003
   0.05760353  0.17619903  0.03049599       0.003
   0.05873301  0.17619903  0.02936651       0.003
   0.05986249  0.17619903  0.02823702       0.003
   0.06099197  0.17619903  0.02710754       0.003
   0.06212145  0.17619903  0.02597806       0.003
   0.06325094  0.17619903  0.02484858       0.003
   0.06438042  0.17619903  0.02371910       0.003
   0.06550990  0.17619903  0.02258962       0.003
   0.06663938  0.17619903  0.02146014       0.003
   0.06776886  0.17619903  0.02033066       0.003
   0.06889834  0.17619903  0.01920118       0.003
   0.07002782  0.17619903  0.01807170       0.003
   0.07115730  0.17619903  0.01694221       0.003
   0.07228678  0.17619903  0.01581273       0.003
   0.07341626  0.17619903  0.01468325       0.003
   0.07454575  0.17619903  0.01355377       0.003
   0.07567523  0.17619903  0.01242429       0.003
   0.07680471  0.17619903  0.01129481       0.003
   0.07793419  0.17619903  0.01016533       0.003
   0.07906367  0.17619903  0.00903585       0.003
   0.08019315  0.17619903  0.00790637       0.003
   0.08132263  0.17619903  0.00677689       0.003
   0.08245211  0.17619903  0.00564740       0.003
   0.08358159  0.17619903  0.00451792       0.003
   0.08471107  0.17619903  0.00338844       0.003
   0.08584056  0.17619903  0.00225896       0.003
   0.08697004  0.17619903  0.00112948       0.003
   0.08809952  0.17619903  0.00000000       0.003
   0.08809952  0.17619903  0.00000000       0.003
   0.08809952  0.17394007  0.00225896       0.003
   0.08809952  0.17168111  0.00451792       0.003
   0.08809952  0.16942215  0.00677689       0.003
   0.08809952  0.16716319  0.00903585       0.003
   0.08809952  0.16490422  0.01129481       0.003
   0.08809952  0.16264526  0.01355377       0.003
   0.08809952  0.16038630  0.01581273       0.003
   0.08809952  0.15812734  0.01807170       0.003
   0.08809952  0.15586838  0.02033066       0.003
   0.08809952  0.15360941  0.02258962       0.003
   0.08809952  0.15135045  0.02484858       0.003
   0.08809952  0.14909149  0.02710754       0.003
   0.08809952  0.14683253  0.02936651       0.003
   0.08809952  0.14457357  0.03162547       0.003
   0.08809952  0.14231460  0.03388443       0.003
   0.08809952  0.14005564  0.03614339       0.003
   0.08809952  0.13779668  0.03840235       0.003
   0.08809952  0.13553772  0.04066132       0.003
   0.08809952  0.13327876  0.04292028       0.003
   0.08809952  0.13101979  0.04517924       0.003
   0.08809952  0.12876083  0.04743820       0.003
   0.08809952  0.12650187  0.04969716       0.003
   0.08809952  0.12424291  0.05195613       0.003
   0.08809952  0.12198395  0.05421509       0.003
   0.08809952  0.11972498  0.05647405       0.003
   0.08809952  0.11746602  0.05873301       0.003
   0.08809952  0.11520706  0.06099197       0.003
   0.08809952  0.11294810  0.06325094       0.003
   0.08809952  0.11068914  0.06550990       0.003
   0.08809952  0.10843018  0.06776886       0.003
   0.08809952  0.10617121  0.07002782       0.003
   0.08809952  0.10391225  0.07228678       0.003
   0.08809952  0.10165329  0.07454575       0.003
   0.08809952  0.09939433  0.07680471       0.003
   0.08809952  0.09713537  0.07906367       0.003
   0.08809952  0.09487640  0.08132263       0.003
   0.08809952  0.09261744  0.08358159       0.003
   0.08809952  0.09035848  0.08584056       0.003
   0.08809952  0.08809952  0.08809952       0.003
   0.08809952  0.08809952  0.08809952       0.003
   0.08922900  0.08922900  0.08584056       0.003
   0.09035848  0.09035848  0.08358159       0.003
   0.09148796  0.09148796  0.08132263       0.003
   0.09261744  0.09261744  0.07906367       0.003
   0.09374692  0.09374692  0.07680471       0.003
   0.09487640  0.09487640  0.07454575       0.003
   0.09600588  0.09600588  0.07228678       0.003
   0.09713537  0.09713537  0.07002782       0.003
   0.09826485  0.09826485  0.06776886       0.003
   0.09939433  0.09939433  0.06550990       0.003
   0.10052381  0.10052381  0.06325094       0.003
   0.10165329  0.10165329  0.06099197       0.003
   0.10278277  0.10278277  0.05873301       0.003
   0.10391225  0.10391225  0.05647405       0.003
   0.10504173  0.10504173  0.05421509       0.003
   0.10617121  0.10617121  0.05195613       0.003
   0.10730069  0.10730069  0.04969716       0.003
   0.10843018  0.10843018  0.04743820       0.003
   0.10955966  0.10955966  0.04517924       0.003
   0.11068914  0.11068914  0.04292028       0.003
   0.11181862  0.11181862  0.04066132       0.003
   0.11294810  0.11294810  0.03840235       0.003
   0.11407758  0.11407758  0.03614339       0.003
   0.11520706  0.11520706  0.03388443       0.003
   0.11633654  0.11633654  0.03162547       0.003
   0.11746602  0.11746602  0.02936651       0.003
   0.11859550  0.11859550  0.02710754       0.003
   0.11972498  0.11972498  0.02484858       0.003
   0.12085447  0.12085447  0.02258962       0.003
   0.12198395  0.12198395  0.02033066       0.003
   0.12311343  0.12311343  0.01807170       0.003
   0.12424291  0.12424291  0.01581273       0.003
   0.12537239  0.12537239  0.01355377       0.003
   0.12650187  0.12650187  0.01129481       0.003
   0.12763135  0.12763135  0.00903585       0.003
   0.12876083  0.12876083  0.00677689       0.003
   0.12989031  0.12989031  0.00451792       0.003
   0.13101979  0.13101979  0.00225896       0.003
   0.13214928  0.13214928  0.00000000       0.003
   0.04404976  0.17619903  0.04404976       0.003
   0.04292028  0.17619903  0.04292028       0.003
   0.04179080  0.17619903  0.04179080       0.003
   0.04066132  0.17619903  0.04066132       0.003
   0.03953183  0.17619903  0.03953183       0.003
   0.03840235  0.17619903  0.03840235       0.003
   0.03727287  0.17619903  0.03727287       0.003
   0.03614339  0.17619903  0.03614339       0.003
   0.03501391  0.17619903  0.03501391       0.003
   0.03388443  0.17619903  0.03388443       0.003
   0.03275495  0.17619903  0.03275495       0.003
   0.03162547  0.17619903  0.03162547       0.003
   0.03049599  0.17619903  0.03049599       0.003
   0.02936651  0.17619903  0.02936651       0.003
   0.02823702  0.17619903  0.02823702       0.003
   0.02710754  0.17619903  0.02710754       0.003
   0.02597806  0.17619903  0.02597806       0.003
   0.02484858  0.17619903  0.02484858       0.003
   0.02371910  0.17619903  0.02371910       0.003
   0.02258962  0.17619903  0.02258962       0.003
   0.02146014  0.17619903  0.02146014       0.003
   0.02033066  0.17619903  0.02033066       0.003
   0.01920118  0.17619903  0.01920118       0.003
   0.01807170  0.17619903  0.01807170       0.003
   0.01694221  0.17619903  0.01694221       0.003
   0.01581273  0.17619903  0.01581273       0.003
   0.01468325  0.17619903  0.01468325       0.003
   0.01355377  0.17619903  0.01355377       0.003
   0.01242429  0.17619903  0.01242429       0.003
   0.01129481  0.17619903  0.01129481       0.003
   0.01016533  0.17619903  0.01016533       0.003
   0.00903585  0.17619903  0.00903585       0.003
   0.00790637  0.17619903  0.00790637       0.003
   0.00677689  0.17619903  0.00677689       0.003
   0.00564740  0.17619903  0.00564740       0.003
   0.00451792  0.17619903  0.00451792       0.003
   0.00338844  0.17619903  0.00338844       0.003
   0.00225896  0.17619903  0.00225896       0.003
   0.00112948  0.17619903  0.00112948       0.003
   0.00000000  0.17619903  0.00000000       0.003
 
 k-points in reciprocal lattice and weights: Line_mode KPOINTS file                  
   0.00000000  0.00000000  0.00000000       0.003
   0.01282051  0.00000000  0.01282051       0.003
   0.02564103  0.00000000  0.02564103       0.003
   0.03846154  0.00000000  0.03846154       0.003
   0.05128205  0.00000000  0.05128205       0.003
   0.06410256  0.00000000  0.06410256       0.003
   0.07692308  0.00000000  0.07692308       0.003
   0.08974359  0.00000000  0.08974359       0.003
   0.10256410  0.00000000  0.10256410       0.003
   0.11538462  0.00000000  0.11538462       0.003
   0.12820513  0.00000000  0.12820513       0.003
   0.14102564  0.00000000  0.14102564       0.003
   0.15384615  0.00000000  0.15384615       0.003
   0.16666667  0.00000000  0.16666667       0.003
   0.17948718  0.00000000  0.17948718       0.003
   0.19230769  0.00000000  0.19230769       0.003
   0.20512821  0.00000000  0.20512821       0.003
   0.21794872  0.00000000  0.21794872       0.003
   0.23076923  0.00000000  0.23076923       0.003
   0.24358974  0.00000000  0.24358974       0.003
   0.25641026  0.00000000  0.25641026       0.003
   0.26923077  0.00000000  0.26923077       0.003
   0.28205128  0.00000000  0.28205128       0.003
   0.29487179  0.00000000  0.29487179       0.003
   0.30769231  0.00000000  0.30769231       0.003
   0.32051282  0.00000000  0.32051282       0.003
   0.33333333  0.00000000  0.33333333       0.003
   0.34615385  0.00000000  0.34615385       0.003
   0.35897436  0.00000000  0.35897436       0.003
   0.37179487  0.00000000  0.37179487       0.003
   0.38461538  0.00000000  0.38461538       0.003
   0.39743590  0.00000000  0.39743590       0.003
   0.41025641  0.00000000  0.41025641       0.003
   0.42307692  0.00000000  0.42307692       0.003
   0.43589744  0.00000000  0.43589744       0.003
   0.44871795  0.00000000  0.44871795       0.003
   0.46153846  0.00000000  0.46153846       0.003
   0.47435897  0.00000000  0.47435897       0.003
   0.48717949  0.00000000  0.48717949       0.003
   0.50000000  0.00000000  0.50000000       0.003
   0.50000000  0.00000000  0.50000000       0.003
   0.50000000  0.00641026  0.50641026       0.003
   0.50000000  0.01282051  0.51282051       0.003
   0.50000000  0.01923077  0.51923077       0.003
   0.50000000  0.02564103  0.52564103       0.003
   0.50000000  0.03205128  0.53205128       0.003
   0.50000000  0.03846154  0.53846154       0.003
   0.50000000  0.04487179  0.54487179       0.003
   0.50000000  0.05128205  0.55128205       0.003
   0.50000000  0.05769231  0.55769231       0.003
   0.50000000  0.06410256  0.56410256       0.003
   0.50000000  0.07051282  0.57051282       0.003
   0.50000000  0.07692308  0.57692308       0.003
   0.50000000  0.08333333  0.58333333       0.003
   0.50000000  0.08974359  0.58974359       0.003
   0.50000000  0.09615385  0.59615385       0.003
   0.50000000  0.10256410  0.60256410       0.003
   0.50000000  0.10897436  0.60897436       0.003
   0.50000000  0.11538462  0.61538462       0.003
   0.50000000  0.12179487  0.62179487       0.003
   0.50000000  0.12820513  0.62820513       0.003
   0.50000000  0.13461538  0.63461538       0.003
   0.50000000  0.14102564  0.64102564       0.003
[...]
  band No.  band energies     occupation 
      1      -5.1979      2.00000
      2      -5.0120      2.00000
      3       0.2101      2.00000
      4       0.7635      2.00000
      5       4.5525      0.00000
      6       5.3189      0.00000
      7      12.4070      0.00000
      8      12.5505      0.00000
      9      13.8613      0.00000
     10      15.0558      0.00000
     11      15.9649      0.00000
     12      17.6640      0.00000
     13      17.7060      0.00000
     14      18.2275      0.00000
     15      20.8811      0.00000
     16      20.9862      0.00000

 k-point   384 :       0.5513    0.1026    0.5513
  band No.  band energies     occupation 
      1      -5.1890      2.00000
      2      -5.0248      2.00000
      3       0.2529      2.00000
      4       0.7538      2.00000
      5       4.5435      0.00000
      6       5.2323      0.00000
      7      12.4732      0.00000
      8      12.6093      0.00000
      9      13.9593      0.00000
     10      15.1381      0.00000
     11      15.9010      0.00000
     12      17.5589      0.00000
     13      17.6423      0.00000
     14      18.1434      0.00000
     15      20.9710      0.00000
     16      21.0774      0.00000

 k-point   385 :       0.5481    0.0962    0.5481
  band No.  band energies     occupation 
      1      -5.1807      2.00000
      2      -5.0368      2.00000
      3       0.2951      2.00000
      4       0.7447      2.00000
      5       4.5349      0.00000
      6       5.1490      0.00000
      7      12.5382      0.00000
      8      12.6661      0.00000
      9      14.0575      0.00000
     10      15.2205      0.00000
     11      15.8380      0.00000
     12      17.4533      0.00000
     13      17.5808      0.00000
     14      18.0593      0.00000
     15      21.0628      0.00000
     16      21.1693      0.00000

 k-point   386 :       0.5449    0.0897    0.5449
  band No.  band energies     occupation 
      1      -5.1731      2.00000
      2      -5.0480      2.00000
      3       0.3364      2.00000
      4       0.7361      2.00000
      5       4.5270      0.00000
      6       5.0694      0.00000
      7      12.6017      0.00000
      8      12.7207      0.00000
      9      14.1557      0.00000
     10      15.3028      0.00000
     11      15.7762      0.00000
     12      17.3475      0.00000
     13      17.5217      0.00000
     14      17.9753      0.00000
     15      21.1563      0.00000
     16      21.2619      0.00000

 k-point   387 :       0.5417    0.0833    0.5417
  band No.  band energies     occupation 
      1      -5.1660      2.00000
      2      -5.0585      2.00000
      3       0.3766      2.00000
      4       0.7282      2.00000
      5       4.5195      0.00000
      6       4.9936      0.00000
      7      12.6635      0.00000
      8      12.7730      0.00000
      9      14.2538      0.00000
     10      15.3849      0.00000
     11      15.7160      0.00000
     12      17.2418      0.00000
     13      17.4652      0.00000
     14      17.8915      0.00000
     15      21.2513      0.00000
     16      21.3552      0.00000

 k-point   388 :       0.5385    0.0769    0.5385
  band No.  band energies     occupation 
      1      -5.1596      2.00000
      2      -5.0681      2.00000
      3       0.4155      2.00000
      4       0.7208      2.00000
      5       4.5126      0.00000
      6       4.9218      0.00000
      7      12.7233      0.00000
      8      12.8227      0.00000
      9      14.3517      0.00000
     10      15.4666      0.00000
     11      15.6575      0.00000
     12      17.1365      0.00000
     13      17.4115      0.00000
     14      17.8080      0.00000
     15      21.3477      0.00000
     16      21.4490      0.00000

 k-point   389 :       0.5353    0.0705    0.5353
  band No.  band energies     occupation 
      1      -5.1537      2.00000
      2      -5.0770      2.00000
      3       0.4527      2.00000
      4       0.7140      2.00000
      5       4.5062      0.00000
      6       4.8544      0.00000
      7      12.7808      0.00000
      8      12.8696      0.00000
      9      14.4491      0.00000
     10      15.5477      0.00000
     11      15.6011      0.00000
     12      17.0319      0.00000
     13      17.3608      0.00000
     14      17.7253      0.00000
     15      21.4452      0.00000
     16      21.5433      0.00000

 k-point   390 :       0.5321    0.0641    0.5321
  band No.  band energies     occupation 
      1      -5.1484      2.00000
      2      -5.0852      2.00000
      3       0.4880      2.00000
      4       0.7078      2.00000
      5       4.5004      0.00000
      6       4.7916      0.00000
      7      12.8357      0.00000
      8      12.9134      0.00000
      9      14.5459      0.00000
     10      15.5473      0.00000
     11      15.6279      0.00000
     12      16.9284      0.00000
     13      17.3135      0.00000
     14      17.6434      0.00000
     15      21.5439      0.00000
     16      21.6380      0.00000

 k-point   391 :       0.5288    0.0577    0.5288
  band No.  band energies     occupation 
      1      -5.1437      2.00000
      2      -5.0925      2.00000
      3       0.5210      2.00000
      4       0.7022      2.00000
      5       4.4951      0.00000
      6       4.7336      0.00000
      7      12.8875      0.00000
      8      12.9541      0.00000
      9      14.6416      0.00000
     10      15.4964      0.00000
     11      15.7070      0.00000
     12      16.8264      0.00000
     13      17.2697      0.00000
     14      17.5628      0.00000
     15      21.6435      0.00000
     16      21.7330      0.00000

 k-point   392 :       0.5256    0.0513    0.5256
  band No.  band energies     occupation 
      1      -5.1395      2.00000
      2      -5.0991      2.00000
      3       0.5516      2.00000
      4       0.6971      2.00000
      5       4.4904      0.00000
      6       4.6808      0.00000
      7      12.9358      0.00000
      8      12.9912      0.00000
      9      14.7357      0.00000
     10      15.4488      0.00000
     11      15.7844      0.00000
     12      16.7265      0.00000
     13      17.2297      0.00000
     14      17.4840      0.00000
     15      21.7440      0.00000
     16      21.8281      0.00000

 k-point   393 :       0.5224    0.0449    0.5224
  band No.  band energies     occupation 
      1      -5.1357      2.00000
      2      -5.1049      2.00000
      3       0.5813      2.00000
      4       0.6927      2.00000
      5       4.4863      0.00000
      6       4.6334      0.00000
      7      12.9801      0.00000
      8      13.0249      0.00000
      9      14.8279      0.00000
     10      15.4050      0.00000
     11      15.8597      0.00000
     12      16.6293      0.00000
     13      17.1939      0.00000
     14      17.4078      0.00000
     15      21.8452      0.00000
     16      21.9244      0.00000

 k-point   394 :       0.5192    0.0385    0.5192
  band No.  band energies     occupation 
      1      -5.1325      2.00000
      2      -5.1099      2.00000
      3       0.6061      2.00000
      4       0.6889      2.00000
      5       4.4826      0.00000
      6       4.5916      0.00000
      7      13.0200      0.00000
      8      13.0544      0.00000
      9      14.9166      0.00000
     10      15.3657      0.00000
     11      15.9316      0.00000
     12      16.5360      0.00000
     13      17.1622      0.00000
     14      17.3347      0.00000
     15      21.9470      0.00000
     16      22.0193      0.00000

 k-point   395 :       0.5160    0.0321    0.5160
  band No.  band energies     occupation 
      1      -5.1299      2.00000
      2      -5.1142      2.00000
      3       0.6276      2.00000
      4       0.6856      2.00000
      5       4.4796      0.00000
      6       4.5558      0.00000
      7      13.0549      0.00000
      8      13.0798      0.00000
      9      15.0007      0.00000
     10      15.3312      0.00000
     11      15.9990      0.00000
     12      16.4479      0.00000
     13      17.1350      0.00000
     14      17.2662      0.00000
     15      22.0492      0.00000
     16      22.1135      0.00000

 k-point   396 :       0.5128    0.0256    0.5128
  band No.  band energies     occupation 
      1      -5.1277      2.00000
      2      -5.1176      2.00000
      3       0.6455      2.00000
      4       0.6829      2.00000
      5       4.4771      0.00000
      6       4.5261      0.00000
      7      13.0844      0.00000
      8      13.1008      0.00000
      9      15.0782      0.00000
     10      15.3021      0.00000
     11      16.0604      0.00000
     12      16.3672      0.00000
     13      17.1124      0.00000
     14      17.2040      0.00000
     15      22.1517      0.00000
     16      22.2068      0.00000

 k-point   397 :       0.5096    0.0192    0.5096
  band No.  band energies     occupation 
      1      -5.1260      2.00000
      2      -5.1204      2.00000
      3       0.6596      2.00000
      4       0.6809      2.00000
      5       4.4751      0.00000
      6       4.5029      0.00000
      7      13.1078      0.00000
      8      13.1173      0.00000
      9      15.1460      0.00000
     10      15.2788      0.00000
     11      16.1134      0.00000
     12      16.2969      0.00000
     13      17.0946      0.00000
     14      17.1504      0.00000
     15      22.2541      0.00000
     16      22.2983      0.00000

 k-point   398 :       0.5064    0.0128    0.5064
  band No.  band energies     occupation 
      1      -5.1248      2.00000
      2      -5.1223      2.00000
      3       0.6694      2.00000
      4       0.6789      2.00000
      5       4.4736      0.00000
      6       4.4860      0.00000
      7      13.1242      0.00000
      8      13.1285      0.00000
      9      15.2000      0.00000
     10      15.2616      0.00000
     11      16.1543      0.00000
     12      16.2397      0.00000
     13      17.0798      0.00000
     14      17.1059      0.00000
     15      22.3560      0.00000
     16      22.3872      0.00000

 k-point   399 :       0.5032    0.0064    0.5032
  band No.  band energies     occupation 
      1      -5.1241      2.00000
      2      -5.1235      2.00000
      3       0.6756      2.00000
      4       0.6780      2.00000
      5       4.4728      0.00000
      6       4.4759      0.00000
      7      13.1346      0.00000
      8      13.1357      0.00000
      9      15.2354      0.00000
     10      15.2513      0.00000
     11      16.1811      0.00000
     12      16.2031      0.00000
     13      17.0721      0.00000
     14      17.0789      0.00000
     15      22.4571      0.00000
     16      22.4725      0.00000

 k-point   400 :       0.5000    0.0000    0.5000
  band No.  band energies     occupation 
      1      -5.1238      2.00000
      2      -5.1238      2.00000
      3       0.6777      2.00000
      4       0.6777      2.00000
      5       4.4725      0.00000
      6       4.4725      0.00000
      7      13.1381      0.00000
      8      13.1381      0.00000
      9      15.2478      0.00000
     10      15.2478      0.00000
     11      16.1903      0.00000
     12      16.1903      0.00000
     13      17.0695      0.00000
     14      17.0695      0.00000
     15      22.5510      0.00000
     16      22.5548      0.00000


--------------------------------------------------------------------------------------------------------


 soft charge-density along one line, spin component           1
         0         1         2         3         4         5         6         7         8         9
 total charge-density along one line
 
 pseudopotential strength for first ion, spin component:           1
 14.500  18.092   0.000   0.000   0.000   0.000   0.000   0.000
 18.092  22.588   0.000   0.000   0.000   0.000   0.000   0.000
  0.000   0.000   3.230  -0.000  -0.000   5.502  -0.000  -0.000
  0.000   0.000  -0.000   3.230  -0.000  -0.000   5.502  -0.000
  0.000   0.000  -0.000  -0.000   3.230  -0.000  -0.000   5.502
  0.000   0.000   5.502  -0.000  -0.000   9.431  -0.000  -0.000
  0.000   0.000  -0.000   5.502  -0.000  -0.000   9.431  -0.000
  0.000   0.000  -0.000  -0.000   5.502  -0.000  -0.000   9.431
 -0.000  -0.000  -0.000  -0.000  -0.000  -0.000  -0.001  -0.000
 -0.000  -0.000  -0.000  -0.000  -0.000  -0.000  -0.000  -0.001
 -0.000  -0.000  -0.000   0.000  -0.000  -0.000   0.000  -0.000
 -0.000  -0.000  -0.000  -0.000  -0.000  -0.001  -0.000  -0.000
 -0.000  -0.000  -0.000  -0.000   0.000  -0.000  -0.000   0.000
 total augmentation occupancy for first ion, spin component:           1
  2.000   0.000   0.000   0.000   0.000   0.000   0.000   0.000   0.000   0.000   0.000   0.000   0.000
  0.000   0.000   0.000   0.000   0.000   0.000   0.000   0.000   0.000   0.000   0.000   0.000   0.000
  0.000   0.000   0.667   0.000   0.000   0.000   0.000   0.000   0.000   0.000   0.000   0.000   0.000
  0.000   0.000   0.000   0.667   0.000   0.000   0.000   0.000   0.000   0.000   0.000   0.000   0.000
  0.000   0.000   0.000   0.000   0.667   0.000   0.000   0.000   0.000   0.000   0.000   0.000   0.000
  0.000   0.000   0.000   0.000   0.000   0.000   0.000   0.000   0.000   0.000   0.000   0.000   0.000
  0.000   0.000   0.000   0.000   0.000   0.000   0.000   0.000   0.000   0.000   0.000   0.000   0.000
  0.000   0.000   0.000   0.000   0.000   0.000   0.000   0.000   0.000   0.000   0.000   0.000   0.000
  0.000   0.000   0.000   0.000   0.000   0.000   0.000   0.000   0.000   0.000   0.000   0.000   0.000
  0.000   0.000   0.000   0.000   0.000   0.000   0.000   0.000   0.000   0.000   0.000   0.000   0.000
  0.000   0.000   0.000   0.000   0.000   0.000   0.000   0.000   0.000   0.000   0.000   0.000   0.000
  0.000   0.000   0.000   0.000   0.000   0.000   0.000   0.000   0.000   0.000   0.000   0.000   0.000
  0.000   0.000   0.000   0.000   0.000   0.000   0.000   0.000   0.000   0.000   0.000   0.000   0.000


------------------------ aborting loop because EDIFF is reached ----------------------------------------





 total charge

# of ion       s       p       d       tot
------------------------------------------
    1        1.125   1.283   0.058   2.466
    2        1.125   1.283   0.058   2.466
--------------------------------------------------
tot          2.250   2.566   0.116   4.933
 
    CHARGE:  cpu time      0.0093: real time      0.0094
    FORLOC:  cpu time      0.0001: real time      0.0001
    FORNL :  cpu time      0.0173: real time      0.0173
    STRESS:  cpu time      0.4820: real time      0.4829
    FORCOR:  cpu time      0.0018: real time      0.0019
    FORHAR:  cpu time      0.0004: real time      0.0004
    OFIELD:  cpu time      0.0000: real time      0.0000

  FORCE on cell =-STRESS in cart. coord.  units (eV):
  Direction    XX          YY          ZZ          XY          YZ          ZX
  --------------------------------------------------------------------------------------
  Alpha Z    16.72880    16.72880    16.72880
  Ewald     -72.89357   -72.89357   -72.89357     0.00000     0.00000     0.00000
  Hartree     5.30360     5.30360     5.30360     0.00000     0.00000     0.00000
  E(xc)     -27.77711   -27.77711   -27.77711     0.00001     0.00001     0.00001
  Local     -23.56495   -23.56495   -23.56495     0.00014     0.00014     0.00014
  n-local    41.20501    38.70955    40.05242    -0.92594    -0.31934    -0.69997
  augment     2.38128     2.38128     2.38128    -0.00014    -0.00014    -0.00014
  Kinetic    61.87772    58.20011    61.99509    -2.75024    -1.52016    -2.79474
  Fock        0.00000     0.00000     0.00000     0.00000     0.00000     0.00000
  -------------------------------------------------------------------------------------
  Total       0.85802     0.85802     0.85802     0.00000     0.00000     0.00000
  in kB      30.07994    30.07994    30.07994     0.00000     0.00000     0.00000
  external pressure =       30.08 kB  Pullay stress =        0.00 kB


 VOLUME and BASIS-vectors are now :
 -----------------------------------------------------------------------------
  energy-cutoff  :      173.81
  volume of cell :       45.70
      direct lattice vectors                 reciprocal lattice vectors
     0.000000000  2.837700000  2.837700000    -0.176199034  0.176199034  0.176199034
     2.837700000  0.000000000  2.837700000     0.176199034 -0.176199034  0.176199034
     2.837700000  2.837700000  0.000000000     0.176199034  0.176199034 -0.176199034

  length of vectors
     4.013113826  4.013113826  4.013113826     0.305185680  0.305185680  0.305185680


 FORCES acting on ions
    electron-ion (+dipol)            ewald-force                    non-local-force                 convergence-correction
 -----------------------------------------------------------------------------------------------
   -.254E-05 -.254E-05 -.189E-05   0.379E-14 -.317E-14 -.371E-14   -.273E-16 -.221E-16 -.209E-16   0.307E-10 0.307E-10 0.606E-09
   0.254E-05 0.254E-05 0.189E-05   -.374E-14 0.343E-14 0.369E-14   0.285E-16 0.285E-16 0.201E-16   -.307E-10 -.307E-10 -.606E-09
 -----------------------------------------------------------------------------------------------
   -.201E-13 0.212E-13 -.231E-13   0.427E-16 0.265E-15 -.168E-16   0.117E-17 0.637E-17 -.740E-18   0.356E-14 0.188E-14 0.292E-14
 
 
 POSITION                                       TOTAL-FORCE (eV/Angst)
 -----------------------------------------------------------------------------------
      4.25655      4.25655      4.25655         0.000000     -0.000000     -0.000000
      2.83770      2.83770      2.83770        -0.000000      0.000000      0.000000
 -----------------------------------------------------------------------------------
    total drift:                               -0.000000      0.000000     -0.000000


--------------------------------------------------------------------------------------------------------



  FREE ENERGIE OF THE ION-ELECTRON SYSTEM (eV)
  ---------------------------------------------------
  free  energy   TOTEN  =        -9.06070088 eV

  energy  without entropy=       -9.05759774  energy(sigma->0) =       -9.05914931
 


--------------------------------------------------------------------------------------------------------


    POTLOK:  cpu time      0.0034: real time      0.0034


--------------------------------------------------------------------------------------------------------


 writing wavefunctions
     LOOP+:  cpu time      7.4864: real time      7.5851
    4ORBIT:  cpu time      0.0000: real time      0.0000



 total charge

# of ion       s       p       d       tot
------------------------------------------
    1        1.125   1.283   0.058   2.466
    2        1.125   1.283   0.058   2.466
--------------------------------------------------
tot          2.250   2.566   0.116   4.933
 

 total amount of memory used by VASP MPI-rank0    43544. kBytes
=======================================================================

   base      :      30000. kBytes
   nonl-proj :      11323. kBytes
   fftplans  :         69. kBytes
   grid      :        191. kBytes
   one-center:         16. kBytes
   wavefun   :       1945. kBytes
 
  
  
 General timing and accounting informations for this job:
 ========================================================
  
                  Total CPU time used (sec):       10.382
                            User time (sec):        8.266
                          System time (sec):        2.116
                         Elapsed time (sec):       10.921
  
                   Maximum memory used (kb):      141668.
                   Average memory used (kb):          N/A
  
                          Minor page faults:        12909
                          Major page faults:         2994
                 Voluntary context switches:         1099
