PROCAR lm decomposed
# of k-points:  400         # of bands:   16         # of ions:    2

 k-point     1 :    0.00000000 0.00000000 0.00000000     weight = 0.00250000

band     1 # energy   -8.97467399 # occ.  2.00000000
 
ion      s     py     pz     px    dxy    dyz    dz2    dxz  x2-y2    tot
    1  0.309  0.000  0.000  0.000  0.000  0.000  0.000  0.000  0.000  0.309
    2  0.309  0.000  0.000  0.000  0.000  0.000  0.000  0.000  0.000  0.309
tot    0.619  0.000  0.000  0.000  0.000  0.000  0.000  0.000  0.000  0.619
 
band     2 # energy    3.71827433 # occ.  1.76537488
 
ion      s     py     pz     px    dxy    dyz    dz2    dxz  x2-y2    tot
    1  0.429  0.000  0.000  0.000  0.000  0.000  0.000  0.000  0.000  0.429
    2  0.429  0.000  0.000  0.000  0.000  0.000  0.000  0.000  0.000  0.429
tot    0.858  0.000  0.000  0.000  0.000  0.000  0.000  0.000  0.000  0.858
 
band     3 # energy    3.74063144 # occ.  1.61698340
 
ion      s     py     pz     px    dxy    dyz    dz2    dxz  x2-y2    tot
    1  0.000  0.103  0.103  0.103  0.010  0.010  0.000  0.010  0.000  0.340
    2  0.000  0.103  0.103  0.103  0.010  0.010  0.000  0.010  0.000  0.340
tot    0.000  0.206  0.206  0.206  0.021  0.021  0.000  0.021  0.000  0.680
 
band     4 # energy    3.74068416 # occ.  1.61657668
 
ion      s     py     pz     px    dxy    dyz    dz2    dxz  x2-y2    tot
    1  0.000  0.154  0.000  0.154  0.000  0.016  0.000  0.016  0.000  0.340
    2  0.000  0.154  0.000  0.154  0.000  0.016  0.000  0.016  0.000  0.340
tot    0.000  0.309  0.000  0.309  0.000  0.031  0.000  0.031  0.000  0.680
 
band     5 # energy    3.74068417 # occ.  1.61657661
 
ion      s     py     pz     px    dxy    dyz    dz2    dxz  x2-y2    tot
    1  0.000  0.051  0.206  0.051  0.021  0.005  0.000  0.005  0.000  0.340
    2  0.000  0.051  0.206  0.051  0.021  0.005  0.000  0.005  0.000  0.340
tot    0.000  0.103  0.412  0.103  0.041  0.010  0.000  0.010  0.000  0.680
 
band     6 # energy    6.25064259 # occ.  0.00000000
 
ion      s     py     pz     px    dxy    dyz    dz2    dxz  x2-y2    tot
    1  0.000  0.070  0.070  0.070  0.014  0.014  0.000  0.014  0.000  0.251
    2  0.000  0.070  0.070  0.070  0.014  0.014  0.000  0.014  0.000  0.251
tot    0.000  0.140  0.140  0.140  0.027  0.028  0.000  0.028  0.000  0.502
 
band     7 # energy    6.25068710 # occ.  0.00000000
 
ion      s     py     pz     px    dxy    dyz    dz2    dxz  x2-y2    tot
    1  0.000  0.035  0.140  0.035  0.028  0.007  0.000  0.007  0.000  0.251
    2  0.000  0.035  0.140  0.035  0.028  0.007  0.000  0.007  0.000  0.251
tot    0.000  0.070  0.280  0.070  0.055  0.014  0.000  0.014  0.000  0.502
 
band     8 # energy    6.25068710 # occ.  0.00000000
 
ion      s     py     pz     px    dxy    dyz    dz2    dxz  x2-y2    tot
    1  0.000  0.105  0.000  0.105  0.000  0.021  0.000  0.021  0.000  0.251
    2  0.000  0.105  0.000  0.105  0.000  0.021  0.000  0.021  0.000  0.251
tot    0.000  0.210  0.000  0.210  0.000  0.041  0.000  0.041  0.000  0.502
 
band     9 # energy   10.13922226 # occ.  0.00000000
 
ion      s     py     pz     px    dxy    dyz    dz2    dxz  x2-y2    tot
    1  0.098  0.000  0.000  0.000  0.000  0.000  0.000  0.000  0.000  0.098
    2  0.098  0.000  0.000  0.000  0.000  0.000  0.000  0.000  0.000  0.098
tot    0.195  0.000  0.000  0.000  0.000  0.000  0.000  0.000  0.000  0.195
 
band    10 # energy   12.95578087 # occ.  0.00000000
 
ion      s     py     pz     px    dxy    dyz    dz2    dxz  x2-y2    tot
    1  0.000  0.000  0.000  0.000  0.000  0.000  0.000  0.000  0.211  0.211
    2  0.000  0.000  0.000  0.000  0.000  0.000  0.000  0.000  0.211  0.211
tot    0.000  0.000  0.000  0.000  0.000  0.000  0.000  0.000  0.421  0.421
 
band    11 # energy   12.95578091 # occ.  0.00000000
 
ion      s     py     pz     px    dxy    dyz    dz2    dxz  x2-y2    tot
    1  0.000  0.000  0.000  0.000  0.000  0.000  0.211  0.000  0.000  0.211
    2  0.000  0.000  0.000  0.000  0.000  0.000  0.211  0.000  0.000  0.211
tot    0.000  0.000  0.000  0.000  0.000  0.000  0.421  0.000  0.000  0.421
 
band    12 # energy   14.41343880 # occ.  0.00000000
 
ion      s     py     pz     px    dxy    dyz    dz2    dxz  x2-y2    tot
    1  0.000  0.010  0.010  0.010  0.016  0.016  0.000  0.016  0.000  0.076
    2  0.000  0.010  0.010  0.010  0.016  0.016  0.000  0.016  0.000  0.076
tot    0.000  0.020  0.020  0.020  0.031  0.031  0.000  0.031  0.000  0.153
 
band    13 # energy   14.41344642 # occ.  0.00000000
 
ion      s     py     pz     px    dxy    dyz    dz2    dxz  x2-y2    tot
    1  0.000  0.015  0.000  0.015  0.000  0.023  0.000  0.023  0.000  0.076
    2  0.000  0.015  0.000  0.015  0.000  0.023  0.000  0.023  0.000  0.076
tot    0.000  0.029  0.000  0.029  0.000  0.047  0.000  0.047  0.000  0.153
 
band    14 # energy   14.41344654 # occ.  0.00000000
 
ion      s     py     pz     px    dxy    dyz    dz2    dxz  x2-y2    tot
    1  0.000  0.005  0.020  0.005  0.031  0.008  0.000  0.008  0.000  0.076
    2  0.000  0.005  0.020  0.005  0.031  0.008  0.000  0.008  0.000  0.076
tot    0.000  0.010  0.039  0.010  0.063  0.016  0.000  0.016  0.000  0.153
 
band    15 # energy   17.51422980 # occ.  0.00000000
 
ion      s     py     pz     px    dxy    dyz    dz2    dxz  x2-y2    tot
    1  0.026  0.000  0.000  0.000  0.000  0.000  0.000  0.000  0.000  0.026
    2  0.026  0.000  0.000  0.000  0.000  0.000  0.000  0.000  0.000  0.026
tot    0.052  0.000  0.000  0.000  0.000  0.000  0.000  0.000  0.000  0.052
 
band    16 # energy   27.84141569 # occ.  0.00000000
 
ion      s     py     pz     px    dxy    dyz    dz2    dxz  x2-y2    tot
    1  0.000  0.005  0.002  0.001  0.124  0.050  0.000  0.270  0.000  0.452
    2  0.000  0.004  0.003  0.001  0.120  0.052  0.000  0.276  0.000  0.455
tot    0.000  0.009  0.004  0.002  0.245  0.102  0.000  0.546  0.000  0.908
 

 k-point     2 :    0.01282051 0.00000000 0.01282051     weight = 0.00250000

band     1 # energy   -8.97202686 # occ.  2.00000000
 
ion      s     py     pz     px    dxy    dyz    dz2    dxz  x2-y2    tot
    1  0.309  0.000  0.000  0.000  0.000  0.000  0.000  0.000  0.000  0.309
    2  0.309  0.000  0.000  0.000  0.000  0.000  0.000  0.000  0.000  0.309
tot    0.619  0.000  0.000  0.000  0.000  0.000  0.000  0.000  0.000  0.619
 
band     2 # energy    3.48386904 # occ.  1.99999332
 
ion      s     py     pz     px    dxy    dyz    dz2    dxz  x2-y2    tot
    1  0.227  0.144  0.000  0.000  0.000  0.000  0.000  0.015  0.000  0.386
    2  0.227  0.144  0.000  0.000  0.000  0.000  0.000  0.015  0.000  0.386
tot    0.454  0.288  0.000  0.000  0.000  0.000  0.000  0.030  0.000  0.772
 
band     3 # energy    3.72671857 # occ.  1.71497962
 
ion      s     py     pz     px    dxy    dyz    dz2    dxz  x2-y2    tot
    1  0.000  0.000  0.154  0.154  0.015  0.015  0.000  0.000  0.000  0.339
    2  0.000  0.000  0.154  0.154  0.015  0.015  0.000  0.000  0.000  0.339
tot    0.000  0.000  0.308  0.308  0.031  0.031  0.000  0.000  0.000  0.678
 
band     4 # energy    3.72675371 # occ.  1.71475565
 
ion      s     py     pz     px    dxy    dyz    dz2    dxz  x2-y2    tot
    1  0.000  0.000  0.154  0.154  0.015  0.015  0.000  0.000  0.000  0.339
    2  0.000  0.000  0.154  0.154  0.015  0.015  0.000  0.000  0.000  0.339
tot    0.000  0.000  0.308  0.308  0.031  0.031  0.000  0.000  0.000  0.678
 
band     5 # energy    3.97417585 # occ.  0.01507946
 
ion      s     py     pz     px    dxy    dyz    dz2    dxz  x2-y2    tot
    1  0.202  0.165  0.000  0.000  0.000  0.000  0.000  0.016  0.000  0.383
    2  0.202  0.165  0.000  0.000  0.000  0.000  0.000  0.016  0.000  0.383
tot    0.404  0.329  0.000  0.000  0.000  0.000  0.000  0.032  0.000  0.766
 
band     6 # energy    6.24160358 # occ.  0.00000000
 
ion      s     py     pz     px    dxy    dyz    dz2    dxz  x2-y2    tot
    1  0.000  0.209  0.000  0.000  0.000  0.000  0.000  0.041  0.000  0.251
    2  0.000  0.209  0.000  0.000  0.000  0.000  0.000  0.041  0.000  0.251
tot    0.001  0.418  0.000  0.000  0.000  0.000  0.000  0.082  0.000  0.501
 
band     7 # energy    6.26793126 # occ.  0.00000000
 
ion      s     py     pz     px    dxy    dyz    dz2    dxz  x2-y2    tot
    1  0.000  0.000  0.105  0.105  0.021  0.021  0.000  0.000  0.000  0.252
    2  0.000  0.000  0.105  0.105  0.021  0.021  0.000  0.000  0.000  0.252
tot    0.000  0.000  0.210  0.211  0.041  0.041  0.000  0.000  0.000  0.504
 
band     8 # energy    6.26796091 # occ.  0.00000000
 
ion      s     py     pz     px    dxy    dyz    dz2    dxz  x2-y2    tot
    1  0.000  0.000  0.105  0.105  0.021  0.021  0.000  0.000  0.000  0.252
    2  0.000  0.000  0.105  0.105  0.021  0.021  0.000  0.000  0.000  0.252
tot    0.000  0.000  0.211  0.210  0.041  0.041  0.000  0.000  0.000  0.504
 
band     9 # energy   10.15433993 # occ.  0.00000000
 
ion      s     py     pz     px    dxy    dyz    dz2    dxz  x2-y2    tot
    1  0.097  0.001  0.000  0.000  0.000  0.000  0.000  0.000  0.000  0.098
    2  0.097  0.001  0.000  0.000  0.000  0.000  0.000  0.000  0.000  0.098
tot    0.194  0.002  0.000  0.000  0.000  0.000  0.000  0.000  0.000  0.196
 
band    10 # energy   12.90253702 # occ.  0.00000000
 
ion      s     py     pz     px    dxy    dyz    dz2    dxz  x2-y2    tot
    1  0.000  0.001  0.000  0.000  0.000  0.000  0.051  0.002  0.152  0.205
    2  0.000  0.001  0.000  0.000  0.000  0.000  0.051  0.002  0.152  0.205
tot    0.000  0.001  0.000  0.000  0.000  0.000  0.101  0.004  0.303  0.410
 
band    11 # energy   12.95847055 # occ.  0.00000000
 
ion      s     py     pz     px    dxy    dyz    dz2    dxz  x2-y2    tot
    1  0.000  0.000  0.000  0.000  0.000  0.000  0.158  0.000  0.053  0.211
    2  0.000  0.000  0.000  0.000  0.000  0.000  0.158  0.000  0.053  0.211
tot    0.000  0.000  0.000  0.000  0.000  0.000  0.316  0.000  0.105  0.421
 
band    12 # energy   14.41883823 # occ.  0.00000000
 
ion      s     py     pz     px    dxy    dyz    dz2    dxz  x2-y2    tot
    1  0.000  0.000  0.015  0.015  0.023  0.024  0.000  0.000  0.000  0.076
    2  0.000  0.000  0.015  0.015  0.023  0.024  0.000  0.000  0.000  0.076
tot    0.000  0.000  0.029  0.030  0.046  0.047  0.000  0.000  0.000  0.153
 
band    13 # energy   14.41884339 # occ.  0.00000000
 
ion      s     py     pz     px    dxy    dyz    dz2    dxz  x2-y2    tot
    1  0.000  0.000  0.015  0.015  0.024  0.023  0.000  0.000  0.000  0.076
    2  0.000  0.000  0.015  0.015  0.024  0.023  0.000  0.000  0.000  0.076
tot    0.000  0.000  0.030  0.029  0.047  0.046  0.000  0.000  0.000  0.153
 
band    14 # energy   14.45651852 # occ.  0.00000000
 
ion      s     py     pz     px    dxy    dyz    dz2    dxz  x2-y2    tot
    1  0.000  0.028  0.000  0.000  0.000  0.000  0.002  0.044  0.006  0.082
    2  0.000  0.028  0.000  0.000  0.000  0.000  0.002  0.044  0.006  0.082
tot    0.000  0.057  0.000  0.000  0.000  0.000  0.004  0.089  0.013  0.163
 
band    15 # energy   17.53892699 # occ.  0.00000000
 
ion      s     py     pz     px    dxy    dyz    dz2    dxz  x2-y2    tot
    1  0.026  0.000  0.000  0.000  0.000  0.000  0.000  0.000  0.000  0.027
    2  0.026  0.000  0.000  0.000  0.000  0.000  0.000  0.000  0.000  0.027
tot    0.052  0.001  0.000  0.000  0.000  0.000  0.000  0.001  0.000  0.053
 
band    16 # energy   27.69020133 # occ.  0.00000000
 
ion      s     py     pz     px    dxy    dyz    dz2    dxz  x2-y2    tot
    1  0.000  0.000  0.020  0.016  0.143  0.238  0.000  0.009  0.000  0.425
    2  0.000  0.000  0.022  0.013  0.134  0.249  0.000  0.008  0.000  0.428
tot    0.000  0.000  0.042  0.029  0.277  0.487  0.000  0.017  0.000  0.853
 

 k-point     3 :    0.02564103 0.00000000 0.02564103     weight = 0.00250000

band     1 # energy   -8.96406528 # occ.  2.00000000
 
ion      s     py     pz     px    dxy    dyz    dz2    dxz  x2-y2    tot
    1  0.309  0.000  0.000  0.000  0.000  0.000  0.000  0.000  0.000  0.310
    2  0.309  0.000  0.000  0.000  0.000  0.000  0.000  0.000  0.000  0.310
tot    0.619  0.000  0.000  0.000  0.000  0.000  0.000  0.000  0.000  0.619
 
band     2 # energy    3.23814518 # occ.  2.00000000
 
ion      s     py     pz     px    dxy    dyz    dz2    dxz  x2-y2    tot
    1  0.225  0.144  0.000  0.000  0.000  0.000  0.000  0.016  0.000  0.385
    2  0.225  0.144  0.000  0.000  0.000  0.000  0.000  0.016  0.000  0.385
tot    0.449  0.289  0.000  0.000  0.000  0.000  0.000  0.031  0.000  0.769
 
band     3 # energy    3.68607930 # occ.  1.89978980
 
ion      s     py     pz     px    dxy    dyz    dz2    dxz  x2-y2    tot
    1  0.000  0.000  0.153  0.153  0.015  0.015  0.000  0.000  0.000  0.337
    2  0.000  0.000  0.153  0.153  0.015  0.015  0.000  0.000  0.000  0.337
tot    0.000  0.000  0.306  0.306  0.030  0.030  0.000  0.000  0.000  0.674
 
band     4 # energy    3.68611441 # occ.  1.89968716
 
ion      s     py     pz     px    dxy    dyz    dz2    dxz  x2-y2    tot
    1  0.000  0.000  0.153  0.153  0.015  0.015  0.000  0.000  0.000  0.337
    2  0.000  0.000  0.153  0.153  0.015  0.015  0.000  0.000  0.000  0.337
tot    0.000  0.000  0.306  0.306  0.030  0.030  0.000  0.000  0.000  0.674
 
band     5 # energy    4.21711326 # occ.  0.00000000
 
ion      s     py     pz     px    dxy    dyz    dz2    dxz  x2-y2    tot
    1  0.204  0.165  0.000  0.000  0.000  0.000  0.000  0.015  0.000  0.384
    2  0.204  0.165  0.000  0.000  0.000  0.000  0.000  0.015  0.000  0.384
tot    0.409  0.329  0.000  0.000  0.000  0.000  0.000  0.030  0.000  0.769
 
band     6 # energy    6.21484958 # occ.  0.00000000
 
ion      s     py     pz     px    dxy    dyz    dz2    dxz  x2-y2    tot
    1  0.002  0.206  0.000  0.000  0.000  0.000  0.000  0.041  0.000  0.249
    2  0.002  0.206  0.000  0.000  0.000  0.000  0.000  0.041  0.000  0.249
tot    0.004  0.413  0.000  0.000  0.000  0.000  0.000  0.082  0.000  0.498
 
band     7 # energy    6.31859497 # occ.  0.00000000
 
ion      s     py     pz     px    dxy    dyz    dz2    dxz  x2-y2    tot
    1  0.000  0.000  0.106  0.106  0.021  0.021  0.000  0.000  0.000  0.254
    2  0.000  0.000  0.106  0.106  0.021  0.021  0.000  0.000  0.000  0.254
tot    0.000  0.000  0.212  0.212  0.042  0.042  0.000  0.000  0.000  0.508
 
band     8 # energy    6.31862463 # occ.  0.00000000
 
ion      s     py     pz     px    dxy    dyz    dz2    dxz  x2-y2    tot
    1  0.000  0.000  0.106  0.106  0.021  0.021  0.000  0.000  0.000  0.254
    2  0.000  0.000  0.106  0.106  0.021  0.021  0.000  0.000  0.000  0.254
tot    0.000  0.000  0.212  0.212  0.042  0.042  0.000  0.000  0.000  0.508
 
band     9 # energy   10.19922898 # occ.  0.00000000
 
ion      s     py     pz     px    dxy    dyz    dz2    dxz  x2-y2    tot
    1  0.096  0.004  0.000  0.000  0.000  0.000  0.000  0.000  0.000  0.100
    2  0.096  0.004  0.000  0.000  0.000  0.000  0.000  0.000  0.000  0.100
tot    0.191  0.007  0.000  0.000  0.000  0.000  0.000  0.001  0.000  0.199
 
band    10 # energy   12.76035519 # occ.  0.00000000
 
ion      s     py     pz     px    dxy    dyz    dz2    dxz  x2-y2    tot
    1  0.000  0.002  0.000  0.000  0.000  0.000  0.046  0.007  0.137  0.192
    2  0.000  0.002  0.000  0.000  0.000  0.000  0.046  0.007  0.137  0.192
tot    0.000  0.004  0.000  0.000  0.000  0.000  0.092  0.014  0.275  0.384
 
band    11 # energy   12.96653959 # occ.  0.00000000
 
ion      s     py     pz     px    dxy    dyz    dz2    dxz  x2-y2    tot
    1  0.000  0.000  0.000  0.000  0.000  0.000  0.158  0.000  0.053  0.211
    2  0.000  0.000  0.000  0.000  0.000  0.000  0.158  0.000  0.053  0.211
tot    0.000  0.000  0.000  0.000  0.000  0.000  0.316  0.000  0.105  0.421
 
band    12 # energy   14.43503174 # occ.  0.00000000
 
ion      s     py     pz     px    dxy    dyz    dz2    dxz  x2-y2    tot
    1  0.000  0.000  0.014  0.015  0.023  0.024  0.000  0.000  0.000  0.076
    2  0.000  0.000  0.014  0.015  0.023  0.024  0.000  0.000  0.000  0.076
tot    0.000  0.000  0.029  0.030  0.047  0.048  0.000  0.000  0.000  0.153
 
band    13 # energy   14.43503689 # occ.  0.00000000
 
ion      s     py     pz     px    dxy    dyz    dz2    dxz  x2-y2    tot
    1  0.000  0.000  0.015  0.014  0.024  0.023  0.000  0.000  0.000  0.076
    2  0.000  0.000  0.015  0.014  0.024  0.023  0.000  0.000  0.000  0.076
tot    0.000  0.000  0.030  0.029  0.048  0.047  0.000  0.000  0.000  0.153
 
band    14 # energy   14.56837531 # occ.  0.00000000
 
ion      s     py     pz     px    dxy    dyz    dz2    dxz  x2-y2    tot
    1  0.001  0.026  0.000  0.000  0.000  0.000  0.007  0.039  0.021  0.093
    2  0.001  0.026  0.000  0.000  0.000  0.000  0.007  0.039  0.021  0.093
tot    0.002  0.052  0.000  0.000  0.000  0.000  0.014  0.078  0.041  0.187
 
band    15 # energy   17.61292743 # occ.  0.00000000
 
ion      s     py     pz     px    dxy    dyz    dz2    dxz  x2-y2    tot
    1  0.025  0.001  0.000  0.000  0.000  0.000  0.000  0.001  0.000  0.028
    2  0.025  0.001  0.000  0.000  0.000  0.000  0.000  0.001  0.000  0.028
tot    0.050  0.003  0.000  0.000  0.000  0.000  0.000  0.003  0.000  0.056
 
band    16 # energy   27.37627093 # occ.  0.00000000
 
ion      s     py     pz     px    dxy    dyz    dz2    dxz  x2-y2    tot
    1  0.000  0.000  0.043  0.016  0.116  0.223  0.000  0.000  0.000  0.397
    2  0.000  0.000  0.013  0.046  0.241  0.097  0.000  0.000  0.000  0.397
tot    0.000  0.000  0.056  0.062  0.357  0.319  0.000  0.001  0.000  0.794
 

 k-point     4 :    0.03846154 0.00000000 0.03846154     weight = 0.00250000

band     1 # energy   -8.95079023 # occ.  2.00000000
 
ion      s     py     pz     px    dxy    dyz    dz2    dxz  x2-y2    tot
    1  0.309  0.000  0.000  0.000  0.000  0.000  0.000  0.000  0.000  0.310
    2  0.309  0.000  0.000  0.000  0.000  0.000  0.000  0.000  0.000  0.310
tot    0.619  0.001  0.000  0.000  0.000  0.000  0.000  0.000  0.000  0.619
 
band     2 # energy    2.99214135 # occ.  2.00000000
 
ion      s     py     pz     px    dxy    dyz    dz2    dxz  x2-y2    tot
    1  0.226  0.142  0.000  0.000  0.000  0.000  0.000  0.016  0.000  0.384
    2  0.226  0.142  0.000  0.000  0.000  0.000  0.000  0.016  0.000  0.384
tot    0.451  0.285  0.000  0.000  0.000  0.000  0.000  0.032  0.000  0.768
 
band     3 # energy    3.62180973 # occ.  1.98931221
 
ion      s     py     pz     px    dxy    dyz    dz2    dxz  x2-y2    tot
    1  0.000  0.000  0.152  0.152  0.015  0.015  0.000  0.000  0.000  0.334
    2  0.000  0.000  0.152  0.152  0.015  0.015  0.000  0.000  0.000  0.334
tot    0.000  0.000  0.304  0.304  0.030  0.030  0.000  0.000  0.000  0.668
 
band     4 # energy    3.62184480 # occ.  1.98929698
 
ion      s     py     pz     px    dxy    dyz    dz2    dxz  x2-y2    tot
    1  0.000  0.000  0.152  0.152  0.015  0.015  0.000  0.000  0.000  0.334
    2  0.000  0.000  0.152  0.152  0.015  0.015  0.000  0.000  0.000  0.334
tot    0.000  0.000  0.304  0.304  0.030  0.030  0.000  0.000  0.000  0.668
 
band     5 # energy    4.45812617 # occ.  0.00000000
 
ion      s     py     pz     px    dxy    dyz    dz2    dxz  x2-y2    tot
    1  0.203  0.167  0.000  0.000  0.000  0.000  0.000  0.015  0.000  0.385
    2  0.203  0.167  0.000  0.000  0.000  0.000  0.000  0.015  0.000  0.385
tot    0.406  0.334  0.000  0.000  0.000  0.000  0.000  0.029  0.000  0.770
 
band     6 # energy    6.17168176 # occ.  0.00000000
 
ion      s     py     pz     px    dxy    dyz    dz2    dxz  x2-y2    tot
    1  0.004  0.202  0.000  0.000  0.000  0.000  0.000  0.040  0.000  0.247
    2  0.004  0.202  0.000  0.000  0.000  0.000  0.000  0.040  0.000  0.247
tot    0.008  0.404  0.000  0.000  0.000  0.000  0.000  0.081  0.000  0.493
 
band     7 # energy    6.39954320 # occ.  0.00000000
 
ion      s     py     pz     px    dxy    dyz    dz2    dxz  x2-y2    tot
    1  0.000  0.000  0.107  0.107  0.021  0.021  0.000  0.000  0.000  0.257
    2  0.000  0.000  0.107  0.107  0.021  0.021  0.000  0.000  0.000  0.257
tot    0.000  0.000  0.214  0.215  0.043  0.043  0.000  0.000  0.000  0.515
 
band     8 # energy    6.39957283 # occ.  0.00000000
 
ion      s     py     pz     px    dxy    dyz    dz2    dxz  x2-y2    tot
    1  0.000  0.000  0.107  0.107  0.021  0.021  0.000  0.000  0.000  0.257
    2  0.000  0.000  0.107  0.107  0.021  0.021  0.000  0.000  0.000  0.257
tot    0.000  0.000  0.215  0.214  0.043  0.043  0.000  0.000  0.000  0.515
 
band     9 # energy   10.27258818 # occ.  0.00000000
 
ion      s     py     pz     px    dxy    dyz    dz2    dxz  x2-y2    tot
    1  0.093  0.008  0.000  0.000  0.000  0.000  0.000  0.001  0.000  0.102
    2  0.093  0.008  0.000  0.000  0.000  0.000  0.000  0.001  0.000  0.102
tot    0.187  0.016  0.000  0.000  0.000  0.000  0.000  0.002  0.000  0.204
 
band    10 # energy   12.56225855 # occ.  0.00000000
 
ion      s     py     pz     px    dxy    dyz    dz2    dxz  x2-y2    tot
    1  0.000  0.003  0.000  0.000  0.000  0.000  0.041  0.012  0.123  0.178
    2  0.000  0.003  0.000  0.000  0.000  0.000  0.041  0.012  0.123  0.178
tot    0.001  0.005  0.000  0.000  0.000  0.000  0.082  0.024  0.245  0.357
 
band    11 # energy   12.97998837 # occ.  0.00000000
 
ion      s     py     pz     px    dxy    dyz    dz2    dxz  x2-y2    tot
    1  0.000  0.000  0.000  0.000  0.000  0.000  0.158  0.000  0.053  0.211
    2  0.000  0.000  0.000  0.000  0.000  0.000  0.158  0.000  0.053  0.211
tot    0.000  0.000  0.000  0.000  0.000  0.000  0.316  0.000  0.105  0.421
 
band    12 # energy   14.46203093 # occ.  0.00000000
 
ion      s     py     pz     px    dxy    dyz    dz2    dxz  x2-y2    tot
    1  0.000  0.000  0.014  0.015  0.023  0.024  0.000  0.000  0.000  0.077
    2  0.000  0.000  0.014  0.015  0.023  0.024  0.000  0.000  0.000  0.077
tot    0.000  0.000  0.029  0.029  0.047  0.048  0.000  0.000  0.000  0.153
 
band    13 # energy   14.46203608 # occ.  0.00000000
 
ion      s     py     pz     px    dxy    dyz    dz2    dxz  x2-y2    tot
    1  0.000  0.000  0.015  0.014  0.024  0.023  0.000  0.000  0.000  0.077
    2  0.000  0.000  0.015  0.014  0.024  0.023  0.000  0.000  0.000  0.077
tot    0.000  0.000  0.029  0.029  0.048  0.047  0.000  0.000  0.000  0.153
 
band    14 # energy   14.71671559 # occ.  0.00000000
 
ion      s     py     pz     px    dxy    dyz    dz2    dxz  x2-y2    tot
    1  0.002  0.023  0.000  0.000  0.000  0.000  0.012  0.033  0.035  0.105
    2  0.002  0.023  0.000  0.000  0.000  0.000  0.012  0.033  0.035  0.105
tot    0.004  0.047  0.000  0.000  0.000  0.000  0.023  0.066  0.070  0.210
 
band    15 # energy   17.73578173 # occ.  0.00000000
 
ion      s     py     pz     px    dxy    dyz    dz2    dxz  x2-y2    tot
    1  0.024  0.003  0.000  0.000  0.000  0.000  0.000  0.003  0.000  0.031
    2  0.024  0.003  0.000  0.000  0.000  0.000  0.000  0.003  0.000  0.031
tot    0.048  0.006  0.000  0.000  0.000  0.000  0.000  0.006  0.001  0.061
 
band    16 # energy   27.02001133 # occ.  0.00000000
 
ion      s     py     pz     px    dxy    dyz    dz2    dxz  x2-y2    tot
    1  0.000  0.000  0.042  0.026  0.127  0.183  0.000  0.000  0.000  0.378
    2  0.000  0.000  0.010  0.058  0.258  0.052  0.000  0.000  0.000  0.378
tot    0.000  0.000  0.052  0.084  0.385  0.235  0.000  0.000  0.000  0.756
 

 k-point     5 :    0.05128205 0.00000000 0.05128205     weight = 0.00250000

band     1 # energy   -8.93220548 # occ.  2.00000000
 
ion      s     py     pz     px    dxy    dyz    dz2    dxz  x2-y2    tot
    1  0.309  0.001  0.000  0.000  0.000  0.000  0.000  0.000  0.000  0.310
    2  0.309  0.001  0.000  0.000  0.000  0.000  0.000  0.000  0.000  0.310
tot    0.618  0.001  0.000  0.000  0.000  0.000  0.000  0.000  0.000  0.620
 
band     2 # energy    2.74637557 # occ.  2.00000000
 
ion      s     py     pz     px    dxy    dyz    dz2    dxz  x2-y2    tot
    1  0.227  0.140  0.000  0.000  0.000  0.000  0.000  0.016  0.000  0.383
    2  0.227  0.140  0.000  0.000  0.000  0.000  0.000  0.016  0.000  0.383
tot    0.455  0.280  0.000  0.000  0.000  0.000  0.000  0.032  0.000  0.767
 
band     3 # energy    3.53805414 # occ.  1.99981394
 
ion      s     py     pz     px    dxy    dyz    dz2    dxz  x2-y2    tot
    1  0.000  0.000  0.151  0.151  0.014  0.014  0.000  0.000  0.000  0.330
    2  0.000  0.000  0.151  0.151  0.014  0.014  0.000  0.000  0.000  0.330
tot    0.000  0.000  0.301  0.301  0.029  0.029  0.000  0.000  0.000  0.660
 
band     4 # energy    3.53808916 # occ.  1.99981357
 
ion      s     py     pz     px    dxy    dyz    dz2    dxz  x2-y2    tot
    1  0.000  0.000  0.151  0.151  0.014  0.014  0.000  0.000  0.000  0.330
    2  0.000  0.000  0.151  0.151  0.014  0.014  0.000  0.000  0.000  0.330
tot    0.000  0.000  0.301  0.301  0.029  0.029  0.000  0.000  0.000  0.660
 
band     5 # energy    4.69701588 # occ.  0.00000000
 
ion      s     py     pz     px    dxy    dyz    dz2    dxz  x2-y2    tot
    1  0.201  0.170  0.000  0.000  0.000  0.000  0.000  0.014  0.000  0.386
    2  0.201  0.170  0.000  0.000  0.000  0.000  0.000  0.014  0.000  0.386
tot    0.403  0.341  0.000  0.000  0.000  0.000  0.000  0.028  0.000  0.772
 
band     6 # energy    6.11400337 # occ.  0.00000000
 
ion      s     py     pz     px    dxy    dyz    dz2    dxz  x2-y2    tot
    1  0.007  0.197  0.000  0.000  0.000  0.000  0.000  0.040  0.000  0.244
    2  0.007  0.197  0.000  0.000  0.000  0.000  0.000  0.040  0.000  0.244
tot    0.013  0.394  0.000  0.000  0.000  0.000  0.000  0.079  0.001  0.487
 
band     7 # energy    6.50661905 # occ.  0.00000000
 
ion      s     py     pz     px    dxy    dyz    dz2    dxz  x2-y2    tot
    1  0.000  0.000  0.109  0.109  0.022  0.022  0.000  0.000  0.000  0.261
    2  0.000  0.000  0.109  0.109  0.022  0.022  0.000  0.000  0.000  0.261
tot    0.000  0.000  0.217  0.218  0.044  0.044  0.000  0.000  0.000  0.523
 
band     8 # energy    6.50664864 # occ.  0.00000000
 
ion      s     py     pz     px    dxy    dyz    dz2    dxz  x2-y2    tot
    1  0.000  0.000  0.109  0.109  0.022  0.022  0.000  0.000  0.000  0.261
    2  0.000  0.000  0.109  0.109  0.022  0.022  0.000  0.000  0.000  0.261
tot    0.000  0.000  0.218  0.217  0.044  0.044  0.000  0.000  0.000  0.523
 
band     9 # energy   10.37248726 # occ.  0.00000000
 
ion      s     py     pz     px    dxy    dyz    dz2    dxz  x2-y2    tot
    1  0.090  0.014  0.000  0.000  0.000  0.000  0.000  0.001  0.000  0.105
    2  0.090  0.014  0.000  0.000  0.000  0.000  0.000  0.001  0.000  0.105
tot    0.181  0.027  0.000  0.000  0.000  0.000  0.000  0.003  0.000  0.211
 
band    10 # energy   12.33423210 # occ.  0.00000000
 
ion      s     py     pz     px    dxy    dyz    dz2    dxz  x2-y2    tot
    1  0.001  0.003  0.000  0.000  0.000  0.000  0.037  0.016  0.110  0.167
    2  0.001  0.003  0.000  0.000  0.000  0.000  0.037  0.016  0.110  0.167
tot    0.001  0.006  0.000  0.000  0.000  0.000  0.073  0.033  0.220  0.333
 
band    11 # energy   12.99881748 # occ.  0.00000000
 
ion      s     py     pz     px    dxy    dyz    dz2    dxz  x2-y2    tot
    1  0.000  0.000  0.000  0.000  0.000  0.000  0.158  0.000  0.053  0.211
    2  0.000  0.000  0.000  0.000  0.000  0.000  0.158  0.000  0.053  0.211
tot    0.000  0.000  0.000  0.000  0.000  0.000  0.316  0.000  0.105  0.421
 
band    12 # energy   14.49984821 # occ.  0.00000000
 
ion      s     py     pz     px    dxy    dyz    dz2    dxz  x2-y2    tot
    1  0.000  0.000  0.014  0.015  0.024  0.024  0.000  0.000  0.000  0.077
    2  0.000  0.000  0.014  0.015  0.024  0.024  0.000  0.000  0.000  0.077
tot    0.000  0.000  0.029  0.029  0.047  0.048  0.000  0.000  0.000  0.153
 
band    13 # energy   14.49985335 # occ.  0.00000000
 
ion      s     py     pz     px    dxy    dyz    dz2    dxz  x2-y2    tot
    1  0.000  0.000  0.015  0.014  0.024  0.024  0.000  0.000  0.000  0.077
    2  0.000  0.000  0.015  0.014  0.024  0.024  0.000  0.000  0.000  0.077
tot    0.000  0.000  0.029  0.029  0.048  0.047  0.000  0.000  0.000  0.153
 
band    14 # energy   14.87926990 # occ.  0.00000000
 
ion      s     py     pz     px    dxy    dyz    dz2    dxz  x2-y2    tot
    1  0.003  0.021  0.000  0.000  0.000  0.000  0.016  0.027  0.047  0.114
    2  0.003  0.021  0.000  0.000  0.000  0.000  0.016  0.027  0.047  0.114
tot    0.006  0.042  0.000  0.000  0.000  0.000  0.031  0.054  0.094  0.227
 
band    15 # energy   17.90695161 # occ.  0.00000000
 
ion      s     py     pz     px    dxy    dyz    dz2    dxz  x2-y2    tot
    1  0.022  0.005  0.000  0.000  0.000  0.000  0.000  0.005  0.001  0.034
    2  0.022  0.005  0.000  0.000  0.000  0.000  0.000  0.005  0.001  0.034
tot    0.045  0.010  0.000  0.000  0.000  0.000  0.001  0.011  0.002  0.069
 
band    16 # energy   26.64764693 # occ.  0.00000000
 
ion      s     py     pz     px    dxy    dyz    dz2    dxz  x2-y2    tot
    1  0.000  0.000  0.057  0.016  0.065  0.226  0.000  0.000  0.000  0.364
    2  0.000  0.000  0.022  0.052  0.205  0.086  0.000  0.000  0.000  0.364
tot    0.000  0.000  0.078  0.068  0.270  0.312  0.000  0.000  0.000  0.729
 

 k-point     6 :    0.06410256 0.00000000 0.06410256     weight = 0.00250000

band     1 # energy   -8.90831747 # occ.  2.00000000
 
ion      s     py     pz     px    dxy    dyz    dz2    dxz  x2-y2    tot
    1  0.309  0.001  0.000  0.000  0.000  0.000  0.000  0.000  0.000  0.310
    2  0.309  0.001  0.000  0.000  0.000  0.000  0.000  0.000  0.000  0.310
tot    0.618  0.002  0.000  0.000  0.000  0.000  0.000  0.000  0.000  0.620
 
band     2 # energy    2.50063074 # occ.  2.00000000
 
ion      s     py     pz     px    dxy    dyz    dz2    dxz  x2-y2    tot
    1  0.229  0.138  0.000  0.000  0.000  0.000  0.000  0.016  0.000  0.383
    2  0.229  0.138  0.000  0.000  0.000  0.000  0.000  0.016  0.000  0.383
tot    0.459  0.275  0.000  0.000  0.000  0.000  0.000  0.032  0.000  0.766