<?xml version="1.0" encoding="ISO-8859-1"?>
<modeling>
 <generator>
  <i name="program" type="string">vasp </i>
  <i name="version" type="string">6.4.0  </i>
  <i name="subversion" type="string">14Feb23 (build Mar 14 2023 01:08:06) complex                          parallel </i>
  <i name="platform" type="string">LinuxIFC </i>
  <i name="date" type="string">2024 04 19 </i>
  <i name="time" type="string">17:51:15 </i>
 </generator>
 <incar>
  <i type="string" name="SYSTEM">fcc Si</i>
  <i type="int" name="ICHARG">    11</i>
  <i type="int" name="ISMEAR">     0</i>
  <i name="SIGMA">      0.10000000</i>
  <i type="int" name="LORBIT">    11</i>
 </incar>
 <primitive_cell>
  <structure name="primitive_cell" >
   <crystal>
    <varray name="basis" >
     <v>       0.00000000       2.83770000       2.83770000 </v>
     <v>       2.83770000       0.00000000       2.83770000 </v>
     <v>       2.83770000       2.83770000       0.00000000 </v>
    </varray>
    <i name="volume">     45.70139284 </i>
    <varray name="rec_basis" >
     <v>      -0.17619903       0.17619903       0.17619903 </v>
     <v>       0.17619903      -0.17619903       0.17619903 </v>
     <v>       0.17619903       0.17619903      -0.17619903 </v>
    </varray>
   </crystal>
   <varray name="positions" >
    <v>       0.75000000       0.75000000       0.75000000 </v>
    <v>       0.50000000       0.50000000       0.50000000 </v>
   </varray>
  </structure>
  <varray name="primitive_index" >
   <v type="int" >        1 </v>
   <v type="int" >        2 </v>
  </varray>
 </primitive_cell>
 <kpoints>
  <generation param="listgenerated">
   <i name="divisions" type="int">      40 </i>
   <v>       0.00000000       0.00000000       0.00000000 </v>
   <v>       0.50000000       0.00000000       0.50000000 </v>
   <v>       0.50000000       0.25000000       0.75000000 </v>
   <v>       0.37500000       0.37500000       0.75000000 </v>
   <v>       0.00000000       0.00000000       0.00000000 </v>
   <v>       0.50000000       0.50000000       0.50000000 </v>
   <v>       0.62500000       0.25000000       0.62500000 </v>
   <v>       0.50000000       0.25000000       0.75000000 </v>
   <v>       0.50000000       0.50000000       0.50000000 </v>
   <v>       0.62500000       0.25000000       0.62500000 </v>
   <v>       0.50000000       0.00000000       0.50000000 </v>
  </generation>
  <varray name="kpointlist" >
   <v>       0.00000000       0.00000000       0.00000000 </v>
   <v>       0.01282051       0.00000000       0.01282051 </v>
   <v>       0.02564103       0.00000000       0.02564103 </v>
   <v>       0.03846154       0.00000000       0.03846154 </v>
   <v>       0.05128205       0.00000000       0.05128205 </v>
   <v>       0.06410256       0.00000000       0.06410256 </v>
   <v>       0.07692308       0.00000000       0.07692308 </v>
   <v>       0.08974359       0.00000000       0.08974359 </v>
   <v>       0.10256410       0.00000000       0.10256410 </v>
   <v>       0.11538462       0.00000000       0.11538462 </v>
   <v>       0.12820513       0.00000000       0.12820513 </v>
   <v>       0.14102564       0.00000000       0.14102564 </v>
   <v>       0.15384615       0.00000000       0.15384615 </v>
   <v>       0.16666667       0.00000000       0.16666667 </v>
   <v>       0.17948718       0.00000000       0.17948718 </v>
   <v>       0.19230769       0.00000000       0.19230769 </v>
   <v>       0.20512821       0.00000000       0.20512821 </v>
   <v>       0.21794872       0.00000000       0.21794872 </v>
   <v>       0.23076923       0.00000000       0.23076923 </v>
   <v>       0.24358974       0.00000000       0.24358974 </v>
   <v>       0.25641026       0.00000000       0.25641026 </v>
   <v>       0.26923077       0.00000000       0.26923077 </v>
   <v>       0.28205128       0.00000000       0.28205128 </v>
   <v>       0.29487179       0.00000000       0.29487179 </v>
   <v>       0.30769231       0.00000000       0.30769231 </v>
   <v>       0.32051282       0.00000000       0.32051282 </v>
   <v>       0.33333333       0.00000000       0.33333333 </v>
   <v>       0.34615385       0.00000000       0.34615385 </v>
   <v>       0.35897436       0.00000000       0.35897436 </v>
   <v>       0.37179487       0.00000000       0.37179487 </v>
   <v>       0.38461538       0.00000000       0.38461538 </v>
   <v>       0.39743590       0.00000000       0.39743590 </v>
   <v>       0.41025641       0.00000000       0.41025641 </v>
   <v>       0.42307692       0.00000000       0.42307692 </v>
   <v>       0.43589744       0.00000000       0.43589744 </v>
   <v>       0.44871795       0.00000000       0.44871795 </v>
   <v>       0.46153846       0.00000000       0.46153846 </v>
   <v>       0.47435897       0.00000000       0.47435897 </v>
   <v>       0.48717949       0.00000000       0.48717949 </v>
   <v>       0.50000000       0.00000000       0.50000000 </v>
   <v>       0.50000000       0.00000000       0.50000000 </v>
   <v>       0.50000000       0.00641026       0.50641026 </v>
   <v>       0.50000000       0.01282051       0.51282051 </v>
   <v>       0.50000000       0.01923077       0.51923077 </v>
   <v>       0.50000000       0.02564103       0.52564103 </v>
   <v>       0.50000000       0.03205128       0.53205128 </v>
   <v>       0.50000000       0.03846154       0.53846154 </v>
   <v>       0.50000000       0.04487179       0.54487179 </v>
   <v>       0.50000000       0.05128205       0.55128205 </v>
   <v>       0.50000000       0.05769231       0.55769231 </v>
   <v>       0.50000000       0.06410256       0.56410256 </v>
   <v>       0.50000000       0.07051282       0.57051282 </v>
   <v>       0.50000000       0.07692308       0.57692308 </v>
   <v>       0.50000000       0.08333333       0.58333333 </v>
   <v>       0.50000000       0.08974359       0.58974359 </v>
   <v>       0.50000000       0.09615385       0.59615385 </v>
   <v>       0.50000000       0.10256410       0.60256410 </v>
   <v>       0.50000000       0.10897436       0.60897436 </v>
   <v>       0.50000000       0.11538462       0.61538462 </v>
   <v>       0.50000000       0.12179487       0.62179487 </v>
   <v>       0.50000000       0.12820513       0.62820513 </v>
   <v>       0.50000000       0.13461538       0.63461538 </v>
   <v>       0.50000000       0.14102564       0.64102564 </v>
   <v>       0.50000000       0.14743590       0.64743590 </v>
   <v>       0.50000000       0.15384615       0.65384615 </v>
   <v>       0.50000000       0.16025641       0.66025641 </v>
   <v>       0.50000000       0.16666667       0.66666667 </v>
   <v>       0.50000000       0.17307692       0.67307692 </v>
   <v>       0.50000000       0.17948718       0.67948718 </v>
   <v>       0.50000000       0.18589744       0.68589744 </v>
   <v>       0.50000000       0.19230769       0.69230769 </v>
   <v>       0.50000000       0.19871795       0.69871795 </v>
   <v>       0.50000000       0.20512821       0.70512821 </v>
   <v>       0.50000000       0.21153846       0.71153846 </v>
   <v>       0.50000000       0.21794872       0.71794872 </v>
   <v>       0.50000000       0.22435897       0.72435897 </v>
   <v>       0.50000000       0.23076923       0.73076923 </v>
   <v>       0.50000000       0.23717949       0.73717949 </v>
   <v>       0.50000000       0.24358974       0.74358974 </v>
   <v>       0.50000000       0.25000000       0.75000000 </v>
   <v>       0.50000000       0.25000000       0.75000000 </v>
   <v>       0.49679487       0.25320513       0.75000000 </v>
   <v>       0.49358974       0.25641026       0.75000000 </v>
   <v>       0.49038462       0.25961538       0.75000000 </v>
   <v>       0.48717949       0.26282051       0.75000000 </v>
   <v>       0.48397436       0.26602564       0.75000000 </v>
   <v>       0.48076923       0.26923077       0.75000000 </v>
   <v>       0.47756410       0.27243590       0.75000000 </v>
   <v>       0.47435897       0.27564103       0.75000000 </v>
   <v>       0.47115385       0.27884615       0.75000000 </v>
   <v>       0.46794872       0.28205128       0.75000000 </v>
   <v>       0.46474359       0.28525641       0.75000000 </v>
   <v>       0.46153846       0.28846154       0.75000000 </v>
   <v>       0.45833333       0.29166667       0.75000000 </v>
   <v>       0.45512821       0.29487179       0.75000000 </v>
   <v>       0.45192308       0.29807692       0.75000000 </v>
   <v>       0.44871795       0.30128205       0.75000000 </v>
   <v>       0.44551282       0.30448718       0.75000000 </v>
   <v>       0.44230769       0.30769231       0.75000000 </v>
   <v>       0.43910256       0.31089744       0.75000000 </v>
   <v>       0.43589744       0.31410256       0.75000000 </v>
   <v>       0.43269231       0.31730769       0.75000000 </v>
   <v>       0.42948718       0.32051282       0.75000000 </v>
   <v>       0.42628205       0.32371795       0.75000000 </v>
   <v>       0.42307692       0.32692308       0.75000000 </v>
   <v>       0.41987179       0.33012821       0.75000000 </v>
   <v>       0.41666667       0.33333333       0.75000000 </v>
   <v>       0.41346154       0.33653846       0.75000000 </v>
   <v>       0.41025641       0.33974359       0.75000000 </v>
   <v>       0.40705128       0.34294872       0.75000000 </v>
   <v>       0.40384615       0.34615385       0.75000000 </v>
   <v>       0.40064103       0.34935897       0.75000000 </v>
   <v>       0.39743590       0.35256410       0.75000000 </v>
   <v>       0.39423077       0.35576923       0.75000000 </v>
   <v>       0.39102564       0.35897436       0.75000000 </v>
   <v>       0.38782051       0.36217949       0.75000000 </v>
   <v>       0.38461538       0.36538462       0.75000000 </v>
   <v>       0.38141026       0.36858974       0.75000000 </v>
   <v>       0.37820513       0.37179487       0.75000000 </v>
   <v>       0.37500000       0.37500000       0.75000000 </v>
   <v>       0.37500000       0.37500000       0.75000000 </v>
   <v>       0.36538462       0.36538462       0.73076923 </v>
   <v>       0.35576923       0.35576923       0.71153846 </v>
   <v>       0.34615385       0.34615385       0.69230769 </v>
   <v>       0.33653846       0.33653846       0.67307692 </v>
   <v>       0.32692308       0.32692308       0.65384615 </v>
   <v>       0.31730769       0.31730769       0.63461538 </v>
   <v>       0.30769231       0.30769231       0.61538462 </v>
   <v>       0.29807692       0.29807692       0.59615385 </v>
   <v>       0.28846154       0.28846154       0.57692308 </v>
   <v>       0.27884615       0.27884615       0.55769231 </v>
   <v>       0.26923077       0.26923077       0.53846154 </v>
   <v>       0.25961538       0.25961538       0.51923077 </v>
   <v>       0.25000000       0.25000000       0.50000000 </v>
   <v>       0.24038462       0.24038462       0.48076923 </v>
   <v>       0.23076923       0.23076923       0.46153846 </v>
   <v>       0.22115385       0.22115385       0.44230769 </v>
   <v>       0.21153846       0.21153846       0.42307692 </v>
   <v>       0.20192308       0.20192308       0.40384615 </v>
   <v>       0.19230769       0.19230769       0.38461538 </v>
   <v>       0.18269231       0.18269231       0.36538462 </v>
   <v>       0.17307692       0.17307692       0.34615385 </v>
   <v>       0.16346154       0.16346154       0.32692308 </v>
   <v>       0.15384615       0.15384615       0.30769231 </v>
   <v>       0.14423077       0.14423077       0.28846154 </v>
   <v>       0.13461538       0.13461538       0.26923077 </v>
   <v>       0.12500000       0.12500000       0.25000000 </v>
   <v>       0.11538462       0.11538462       0.23076923 </v>
   <v>       0.10576923       0.10576923       0.21153846 </v>
   <v>       0.09615385       0.09615385       0.19230769 </v>
   <v>       0.08653846       0.08653846       0.17307692 </v>
   <v>       0.07692308       0.07692308       0.15384615 </v>
   <v>       0.06730769       0.06730769       0.13461538 </v>
   <v>       0.05769231       0.05769231       0.11538462 </v>
   <v>       0.04807692       0.04807692       0.09615385 </v>
   <v>       0.03846154       0.03846154       0.07692308 </v>
   <v>       0.02884615       0.02884615       0.05769231 </v>
   <v>       0.01923077       0.01923077       0.03846154 </v>
   <v>       0.00961538       0.00961538       0.01923077 </v>
   <v>      -0.00000000      -0.00000000      -0.00000000 </v>
   <v>       0.00000000       0.00000000       0.00000000 </v>
   <v>       0.01282051       0.01282051       0.01282051 </v>
   <v>       0.02564103       0.02564103       0.02564103 </v>
   <v>       0.03846154       0.03846154       0.03846154 </v>
   <v>       0.05128205       0.05128205       0.05128205 </v>
   <v>       0.06410256       0.06410256       0.06410256 </v>
   <v>       0.07692308       0.07692308       0.07692308 </v>
   <v>       0.08974359       0.08974359       0.08974359 </v>
   <v>       0.10256410       0.10256410       0.10256410 </v>
   <v>       0.11538462       0.11538462       0.11538462 </v>
   <v>       0.12820513       0.12820513       0.12820513 </v>
   <v>       0.14102564       0.14102564       0.14102564 </v>
   <v>       0.15384615       0.15384615       0.15384615 </v>
   <v>       0.16666667       0.16666667       0.16666667 </v>
   <v>       0.17948718       0.17948718       0.17948718 </v>
   <v>       0.19230769       0.19230769       0.19230769 </v>
   <v>       0.20512821       0.20512821       0.20512821 </v>
   <v>       0.21794872       0.21794872       0.21794872 </v>
   <v>       0.23076923       0.23076923       0.23076923 </v>
   <v>       0.24358974       0.24358974       0.24358974 </v>
   <v>       0.25641026       0.25641026       0.25641026 </v>
   <v>       0.26923077       0.26923077       0.26923077 </v>
   <v>       0.28205128       0.28205128       0.28205128 </v>
   <v>       0.29487179       0.29487179       0.29487179 </v>
   <v>       0.30769231       0.30769231       0.30769231 </v>
   <v>       0.32051282       0.32051282       0.32051282 </v>
   <v>       0.33333333       0.33333333       0.33333333 </v>
   <v>       0.34615385       0.34615385       0.34615385 </v>
   <v>       0.35897436       0.35897436       0.35897436 </v>
   <v>       0.37179487       0.37179487       0.37179487 </v>
   <v>       0.38461538       0.38461538       0.38461538 </v>
   <v>       0.39743590       0.39743590       0.39743590 </v>
   <v>       0.41025641       0.41025641       0.41025641 </v>
   <v>       0.42307692       0.42307692       0.42307692 </v>
   <v>       0.43589744       0.43589744       0.43589744 </v>
   <v>       0.44871795       0.44871795       0.44871795 </v>
   <v>       0.46153846       0.46153846       0.46153846 </v>
   <v>       0.47435897       0.47435897       0.47435897 </v>
   <v>       0.48717949       0.48717949       0.48717949 </v>
   <v>       0.50000000       0.50000000       0.50000000 </v>
   <v>       0.50000000       0.50000000       0.50000000 </v>
   <v>       0.50320513       0.49358974       0.50320513 </v>
   <v>       0.50641026       0.48717949       0.50641026 </v>
   <v>       0.50961538       0.48076923       0.50961538 </v>
   <v>       0.51282051       0.47435897       0.51282051 </v>
   <v>       0.51602564       0.46794872       0.51602564 </v>
   <v>       0.51923077       0.46153846       0.51923077 </v>
   <v>       0.52243590       0.45512821       0.52243590 </v>
   <v>       0.52564103       0.44871795       0.52564103 </v>
   <v>       0.52884615       0.44230769       0.52884615 </v>
   <v>       0.53205128       0.43589744       0.53205128 </v>
   <v>       0.53525641       0.42948718       0.53525641 </v>
   <v>       0.53846154       0.42307692       0.53846154 </v>
   <v>       0.54166667       0.41666667       0.54166667 </v>
   <v>       0.54487179       0.41025641       0.54487179 </v>
   <v>       0.54807692       0.40384615       0.54807692 </v>
   <v>       0.55128205       0.39743590       0.55128205 </v>
   <v>       0.55448718       0.39102564       0.55448718 </v>
   <v>       0.55769231       0.38461538       0.55769231 </v>
   <v>       0.56089744       0.37820513       0.56089744 </v>
   <v>       0.56410256       0.37179487       0.56410256 </v>
   <v>       0.56730769       0.36538462       0.56730769 </v>
   <v>       0.57051282       0.35897436       0.57051282 </v>
   <v>       0.57371795       0.35256410       0.57371795 </v>
   <v>       0.57692308       0.34615385       0.57692308 </v>
   <v>       0.58012821       0.33974359       0.58012821 </v>
   <v>       0.58333333       0.33333333       0.58333333 </v>
   <v>       0.58653846       0.32692308       0.58653846 </v>
   <v>       0.58974359       0.32051282       0.58974359 </v>
   <v>       0.59294872       0.31410256       0.59294872 </v>
   <v>       0.59615385       0.30769231       0.59615385 </v>
   <v>       0.59935897       0.30128205       0.59935897 </v>
   <v>       0.60256410       0.29487179       0.60256410 </v>
   <v>       0.60576923       0.28846154       0.60576923 </v>
   <v>       0.60897436       0.28205128       0.60897436 </v>
   <v>       0.61217949       0.27564103       0.61217949 </v>
   <v>       0.61538462       0.26923077       0.61538462 </v>
   <v>       0.61858974       0.26282051       0.61858974 </v>
   <v>       0.62179487       0.25641026       0.62179487 </v>
   <v>       0.62500000       0.25000000       0.62500000 </v>
   <v>       0.62500000       0.25000000       0.62500000 </v>
   <v>       0.62179487       0.25000000       0.62820513 </v>
   <v>       0.61858974       0.25000000       0.63141026 </v>
   <v>       0.61538462       0.25000000       0.63461538 </v>
   <v>       0.61217949       0.25000000       0.63782051 </v>
   <v>       0.60897436       0.25000000       0.64102564 </v>
   <v>       0.60576923       0.25000000       0.64423077 </v>
   <v>       0.60256410       0.25000000       0.64743590 </v>
   <v>       0.59935897       0.25000000       0.65064103 </v>
   <v>       0.59615385       0.25000000       0.65384615 </v>
   <v>       0.59294872       0.25000000       0.65705128 </v>
   <v>       0.58974359       0.25000000       0.66025641 </v>
   <v>       0.58653846       0.25000000       0.66346154 </v>
   <v>       0.58333333       0.25000000       0.66666667 </v>
   <v>       0.58012821       0.25000000       0.66987179 </v>
   <v>       0.57692308       0.25000000       0.67307692 </v>
   <v>       0.57371795       0.25000000       0.67628205 </v>
   <v>       0.57051282       0.25000000       0.67948718 </v>
   <v>       0.56730769       0.25000000       0.68269231 </v>
   <v>       0.56410256       0.25000000       0.68589744 </v>
   <v>       0.56089744       0.25000000       0.68910256 </v>
   <v>       0.55769231       0.25000000       0.69230769 </v>
   <v>       0.55448718       0.25000000       0.69551282 </v>
   <v>       0.55128205       0.25000000       0.69871795 </v>
   <v>       0.54807692       0.25000000       0.70192308 </v>
   <v>       0.54487179       0.25000000       0.70512821 </v>
   <v>       0.54166667       0.25000000       0.70833333 </v>
   <v>       0.53846154       0.25000000       0.71153846 </v>
   <v>       0.53525641       0.25000000       0.71474359 </v>
   <v>       0.53205128       0.25000000       0.71794872 </v>
   <v>       0.52884615       0.25000000       0.72115385 </v>
   <v>       0.52564103       0.25000000       0.72435897 </v>
   <v>       0.52243590       0.25000000       0.72756410 </v>
   <v>       0.51923077       0.25000000       0.73076923 </v>
   <v>       0.51602564       0.25000000       0.73397436 </v>
   <v>       0.51282051       0.25000000       0.73717949 </v>
   <v>       0.50961538       0.25000000       0.74038462 </v>
   <v>       0.50641026       0.25000000       0.74358974 </v>
   <v>       0.50320513       0.25000000       0.74679487 </v>
   <v>       0.50000000       0.25000000       0.75000000 </v>
   <v>       0.50000000       0.25000000       0.75000000 </v>
   <v>       0.50000000       0.25641026       0.74358974 </v>
   <v>       0.50000000       0.26282051       0.73717949 </v>
   <v>       0.50000000       0.26923077       0.73076923 </v>
   <v>       0.50000000       0.27564103       0.72435897 </v>
   <v>       0.50000000       0.28205128       0.71794872 </v>
   <v>       0.50000000       0.28846154       0.71153846 </v>
   <v>       0.50000000       0.29487179       0.70512821 </v>
   <v>       0.50000000       0.30128205       0.69871795 </v>
   <v>       0.50000000       0.30769231       0.69230769 </v>
   <v>       0.50000000       0.31410256       0.68589744 </v>
   <v>       0.50000000       0.32051282       0.67948718 </v>
   <v>       0.50000000       0.32692308       0.67307692 </v>
   <v>       0.50000000       0.33333333       0.66666667 </v>
   <v>       0.50000000       0.33974359       0.66025641 </v>
   <v>       0.50000000       0.34615385       0.65384615 </v>
   <v>       0.50000000       0.35256410       0.64743590 </v>
   <v>       0.50000000       0.35897436       0.64102564 </v>
   <v>       0.50000000       0.36538462       0.63461538 </v>
   <v>       0.50000000       0.37179487       0.62820513 </v>
   <v>       0.50000000       0.37820513       0.62179487 </v>
   <v>       0.50000000       0.38461538       0.61538462 </v>
   <v>       0.50000000       0.39102564       0.60897436 </v>
   <v>       0.50000000       0.39743590       0.60256410 </v>
   <v>       0.50000000       0.40384615       0.59615385 </v>
   <v>       0.50000000       0.41025641       0.58974359 </v>
   <v>       0.50000000       0.41666667       0.58333333 </v>
   <v>       0.50000000       0.42307692       0.57692308 </v>
   <v>       0.50000000       0.42948718       0.57051282 </v>
   <v>       0.50000000       0.43589744       0.56410256 </v>
   <v>       0.50000000       0.44230769       0.55769231 </v>
   <v>       0.50000000       0.44871795       0.55128205 </v>
   <v>       0.50000000       0.45512821       0.54487179 </v>
   <v>       0.50000000       0.46153846       0.53846154 </v>
   <v>       0.50000000       0.46794872       0.53205128 </v>
   <v>       0.50000000       0.47435897       0.52564103 </v>
   <v>       0.50000000       0.48076923       0.51923077 </v>
   <v>       0.50000000       0.48717949       0.51282051 </v>
   <v>       0.50000000       0.49358974       0.50641026 </v>
   <v>       0.50000000       0.50000000       0.50000000 </v>
   <v>       0.50000000       0.50000000       0.50000000 </v>
   <v>       0.49679487       0.49679487       0.50641026 </v>
   <v>       0.49358974       0.49358974       0.51282051 </v>
   <v>       0.49038462       0.49038462       0.51923077 </v>
   <v>       0.48717949       0.48717949       0.52564103 </v>
   <v>       0.48397436       0.48397436       0.53205128 </v>
   <v>       0.48076923       0.48076923       0.53846154 </v>
   <v>       0.47756410       0.47756410       0.54487179 </v>
   <v>       0.47435897       0.47435897       0.55128205 </v>
   <v>       0.47115385       0.47115385       0.55769231 </v>
   <v>       0.46794872       0.46794872       0.56410256 </v>
   <v>       0.46474359       0.46474359       0.57051282 </v>
   <v>       0.46153846       0.46153846       0.57692308 </v>
   <v>       0.45833333       0.45833333       0.58333333 </v>
   <v>       0.45512821       0.45512821       0.58974359 </v>
   <v>       0.45192308       0.45192308       0.59615385 </v>
   <v>       0.44871795       0.44871795       0.60256410 </v>
   <v>       0.44551282       0.44551282       0.60897436 </v>
   <v>       0.44230769       0.44230769       0.61538462 </v>
   <v>       0.43910256       0.43910256       0.62179487 </v>
   <v>       0.43589744       0.43589744       0.62820513 </v>
   <v>       0.43269231       0.43269231       0.63461538 </v>
   <v>       0.42948718       0.42948718       0.64102564 </v>
   <v>       0.42628205       0.42628205       0.64743590 </v>
   <v>       0.42307692       0.42307692       0.65384615 </v>
   <v>       0.41987179       0.41987179       0.66025641 </v>
   <v>       0.41666667       0.41666667       0.66666667 </v>
   <v>       0.41346154       0.41346154       0.67307692 </v>
   <v>       0.41025641       0.41025641       0.67948718 </v>
   <v>       0.40705128       0.40705128       0.68589744 </v>
   <v>       0.40384615       0.40384615       0.69230769 </v>
   <v>       0.40064103       0.40064103       0.69871795 </v>
   <v>       0.39743590       0.39743590       0.70512821 </v>
   <v>       0.39423077       0.39423077       0.71153846 </v>
   <v>       0.39102564       0.39102564       0.71794872 </v>
   <v>       0.38782051       0.38782051       0.72435897 </v>
   <v>       0.38461538       0.38461538       0.73076923 </v>
   <v>       0.38141026       0.38141026       0.73717949 </v>
   <v>       0.37820513       0.37820513       0.74358974 </v>
   <v>       0.37500000       0.37500000       0.75000000 </v>
   <v>       0.62500000       0.25000000       0.62500000 </v>
   <v>       0.62179487       0.24358974       0.62179487 </v>
   <v>       0.61858974       0.23717949       0.61858974 </v>
   <v>       0.61538462       0.23076923       0.61538462 </v>
   <v>       0.61217949       0.22435897       0.61217949 </v>
   <v>       0.60897436       0.21794872       0.60897436 </v>
   <v>       0.60576923       0.21153846       0.60576923 </v>
   <v>       0.60256410       0.20512821       0.60256410 </v>
   <v>       0.59935897       0.19871795       0.59935897 </v>
   <v>       0.59615385       0.19230769       0.59615385 </v>
   <v>       0.59294872       0.18589744       0.59294872 </v>
   <v>       0.58974359       0.17948718       0.58974359 </v>
   <v>       0.58653846       0.17307692       0.58653846 </v>
   <v>       0.58333333       0.16666667       0.58333333 </v>
   <v>       0.58012821       0.16025641       0.58012821 </v>
   <v>       0.57692308       0.15384615       0.57692308 </v>
   <v>       0.57371795       0.14743590       0.57371795 </v>
   <v>       0.57051282       0.14102564       0.57051282 </v>
   <v>       0.56730769       0.13461538       0.56730769 </v>
   <v>       0.56410256       0.12820513       0.56410256 </v>
   <v>       0.56089744       0.12179487       0.56089744 </v>
   <v>       0.55769231       0.11538462       0.55769231 </v>
   <v>       0.55448718       0.10897436       0.55448718 </v>
   <v>       0.55128205       0.10256410       0.55128205 </v>
   <v>       0.54807692       0.09615385       0.54807692 </v>
   <v>       0.54487179       0.08974359       0.54487179 </v>
   <v>       0.54166667       0.08333333       0.54166667 </v>
   <v>       0.53846154       0.07692308       0.53846154 </v>
   <v>       0.53525641       0.07051282       0.53525641 </v>
   <v>       0.53205128       0.06410256       0.53205128 </v>
   <v>       0.52884615       0.05769231       0.52884615 </v>
   <v>       0.52564103       0.05128205       0.52564103 </v>
   <v>       0.52243590       0.04487179       0.52243590 </v>
   <v>       0.51923077       0.03846154       0.51923077 </v>
   <v>       0.51602564       0.03205128       0.51602564 </v>
   <v>       0.51282051       0.02564103       0.51282051 </v>
   <v>       0.50961538       0.01923077       0.50961538 </v>
   <v>       0.50641026       0.01282051       0.50641026 </v>
   <v>       0.50320513       0.00641026       0.50320513 </v>
   <v>       0.50000000       0.00000000       0.50000000 </v>
  </varray>
  <varray name="weights" >
   <v>       0.00250000 </v>
   <v>       0.00250000 </v>
   <v>       0.00250000 </v>
   <v>       0.00250000 </v>
   <v>       0.00250000 </v>
   <v>       0.00250000 </v>
   <v>       0.00250000 </v>
   <v>       0.00250000 </v>
   <v>       0.00250000 </v>
   <v>       0.00250000 </v>
   <v>       0.00250000 </v>
   <v>       0.00250000 </v>
   <v>       0.00250000 </v>
   <v>       0.00250000 </v>
   <v>       0.00250000 </v>
   <v>       0.00250000 </v>
   <v>       0.00250000 </v>
   <v>       0.00250000 </v>
   <v>       0.00250000 </v>
   <v>       0.00250000 </v>
   <v>       0.00250000 </v>
   <v>       0.00250000 </v>
   <v>       0.00250000 </v>
   <v>       0.00250000 </v>
   <v>       0.00250000 </v>
   <v>       0.00250000 </v>
   <v>       0.00250000 </v>
   <v>       0.00250000 </v>
   <v>       0.00250000 </v>
   <v>       0.00250000 </v>
   <v>       0.00250000 </v>
   <v>       0.00250000 </v>
   <v>       0.00250000 </v>
   <v>       0.00250000 </v>
   <v>       0.00250000 </v>
   <v>       0.00250000 </v>
   <v>       0.00250000 </v>
   <v>       0.00250000 </v>
   <v>       0.00250000 </v>
   <v>       0.00250000 </v>
   <v>       0.00250000 </v>
   <v>       0.00250000 </v>
   <v>       0.00250000 </v>
   <v>       0.00250000 </v>
   <v>       0.00250000 </v>
   <v>       0.00250000 </v>
   <v>       0.00250000 </v>
   <v>       0.00250000 </v>
   <v>       0.00250000 </v>
   <v>       0.00250000 </v>
   <v>       0.00250000 </v>
   <v>       0.00250000 </v>
   <v>       0.00250000 </v>
   <v>       0.00250000 </v>
   <v>       0.00250000 </v>
   <v>       0.00250000 </v>
   <v>       0.00250000 </v>
   <v>       0.00250000 </v>
   <v>       0.00250000 </v>
   <v>       0.00250000 </v>
   <v>       0.00250000 </v>
   <v>       0.00250000 </v>
   <v>       0.00250000 </v>
   <v>       0.00250000 </v>
   <v>       0.00250000 </v>
   <v>       0.00250000 </v>
   <v>       0.00250000 </v>
   <v>       0.00250000 </v>
   <v>       0.00250000 </v>
   <v>       0.00250000 </v>
   <v>       0.00250000 </v>
   <v>       0.00250000 </v>
   <v>       0.00250000 </v>
   <v>       0.00250000 </v>
   <v>       0.00250000 </v>
   <v>       0.00250000 </v>
   <v>       0.00250000 </v>
   <v>       0.00250000 </v>
   <v>       0.00250000 </v>
   <v>       0.00250000 </v>
   <v>       0.00250000 </v>
   <v>       0.00250000 </v>
   <v>       0.00250000 </v>
   <v>       0.00250000 </v>
   <v>       0.00250000 </v>
   <v>       0.00250000 </v>
   <v>       0.00250000 </v>
   <v>       0.00250000 </v>
   <v>       0.00250000 </v>
   <v>       0.00250000 </v>
   <v>       0.00250000 </v>
   <v>       0.00250000 </v>
   <v>       0.00250000 </v>
   <v>       0.00250000 </v>
   <v>       0.00250000 </v>
   <v>       0.00250000 </v>
   <v>       0.00250000 </v>
   <v>       0.00250000 </v>
   <v>       0.00250000 </v>
   <v>       0.00250000 </v>
   <v>       0.00250000 </v>
   <v>       0.00250000 </v>
   <v>       0.00250000 </v>
   <v>       0.00250000 </v>
   <v>       0.00250000 </v>
   <v>       0.00250000 </v>
   <v>       0.00250000 </v>
   <v>       0.00250000 </v>
   <v>       0.00250000 </v>
   <v>       0.00250000 </v>
   <v>       0.00250000 </v>
   <v>       0.00250000 </v>
   <v>       0.00250000 </v>
   <v>       0.00250000 </v>
   <v>       0.00250000 </v>
   <v>       0.00250000 </v>
   <v>       0.00250000 </v>
   <v>       0.00250000 </v>
   <v>       0.00250000 </v>
   <v>       0.00250000 </v>
   <v>       0.00250000 </v>
   <v>       0.00250000 </v>
   <v>       0.00250000 </v>
   <v>       0.00250000 </v>
   <v>       0.00250000 </v>
   <v>       0.00250000 </v>
   <v>       0.00250000 </v>
   <v>       0.00250000 </v>
   <v>       0.00250000 </v>
   <v>       0.00250000 </v>
   <v>       0.00250000 </v>
   <v>       0.00250000 </v>
   <v>       0.00250000 </v>
   <v>       0.00250000 </v>
   <v>       0.00250000 </v>
   <v>       0.00250000 </v>
   <v>       0.00250000 </v>
   <v>       0.00250000 </v>
   <v>       0.00250000 </v>
   <v>       0.00250000 </v>
   <v>       0.00250000 </v>
   <v>       0.00250000 </v>
   <v>       0.00250000 </v>
   <v>       0.00250000 </v>
   <v>       0.00250000 </v>
   <v>       0.00250000 </v>
   <v>       0.00250000 </v>
   <v>       0.00250000 </v>
   <v>       0.00250000 </v>
   <v>       0.00250000 </v>
   <v>       0.00250000 </v>
   <v>       0.00250000 </v>
   <v>       0.00250000 </v>
   <v>       0.00250000 </v>
   <v>       0.00250000 </v>
   <v>       0.00250000 </v>
   <v>       0.00250000 </v>
   <v>       0.00250000 </v>
   <v>       0.00250000 </v>
   <v>       0.00250000 </v>
   <v>       0.00250000 </v>
   <v>       0.00250000 </v>
   <v>       0.00250000 </v>
   <v>       0.00250000 </v>
   <v>       0.00250000 </v>
   <v>       0.00250000 </v>
   <v>       0.00250000 </v>
   <v>       0.00250000 </v>
   <v>       0.00250000 </v>
   <v>       0.00250000 </v>
   <v>       0.00250000 </v>
   <v>       0.00250000 </v>
   <v>       0.00250000 </v>
   <v>       0.00250000 </v>
   <v>       0.00250000 </v>
   <v>       0.00250000 </v>
   <v>       0.00250000 </v>
   <v>       0.00250000 </v>
   <v>       0.00250000 </v>
   <v>       0.00250000 </v>
   <v>       0.00250000 </v>
   <v>       0.00250000 </v>
   <v>       0.00250000 </v>
   <v>       0.00250000 </v>
   <v>       0.00250000 </v>
   <v>       0.00250000 </v>
   <v>       0.00250000 </v>
   <v>       0.00250000 </v>
   <v>       0.00250000 </v>
   <v>       0.00250000 </v>
   <v>       0.00250000 </v>
   <v>       0.00250000 </v>
   <v>       0.00250000 </v>
   <v>       0.00250000 </v>
   <v>       0.00250000 </v>
   <v>       0.00250000 </v>
   <v>       0.00250000 </v>
   <v>       0.00250000 </v>
   <v>       0.00250000 </v>
   <v>       0.00250000 </v>
   <v>       0.00250000 </v>
   <v>       0.00250000 </v>
   <v>       0.00250000 </v>
   <v>       0.00250000 </v>
   <v>       0.00250000 </v>
   <v>       0.00250000 </v>
   <v>       0.00250000 </v>
   <v>       0.00250000 </v>
   <v>       0.00250000 </v>
   <v>       0.00250000 </v>
   <v>       0.00250000 </v>
   <v>       0.00250000 </v>
   <v>       0.00250000 </v>
   <v>       0.00250000 </v>
   <v>       0.00250000 </v>
   <v>       0.00250000 </v>
   <v>       0.00250000 </v>
   <v>       0.00250000 </v>
   <v>       0.00250000 </v>
   <v>       0.00250000 </v>
   <v>       0.00250000 </v>
   <v>       0.00250000 </v>
   <v>       0.00250000 </v>
   <v>       0.00250000 </v>
   <v>       0.00250000 </v>
   <v>       0.00250000 </v>
   <v>       0.00250000 </v>
   <v>       0.00250000 </v>
   <v>       0.00250000 </v>
   <v>       0.00250000 </v>
   <v>       0.00250000 </v>
   <v>       0.00250000 </v>
   <v>       0.00250000 </v>
   <v>       0.00250000 </v>
   <v>       0.00250000 </v>
   <v>       0.00250000 </v>
   <v>       0.00250000 </v>
   <v>       0.00250000 </v>
   <v>       0.00250000 </v>
   <v>       0.00250000 </v>
   <v>       0.00250000 </v>
   <v>       0.00250000 </v>
   <v>       0.00250000 </v>
   <v>       0.00250000 </v>
   <v>       0.00250000 </v>
   <v>       0.00250000 </v>
   <v>       0.00250000 </v>
   <v>       0.00250000 </v>
   <v>       0.00250000 </v>
   <v>       0.00250000 </v>
   <v>       0.00250000 </v>
   <v>       0.00250000 </v>
   <v>       0.00250000 </v>
   <v>       0.00250000 </v>
   <v>       0.00250000 </v>
   <v>       0.00250000 </v>
   <v>       0.00250000 </v>
   <v>       0.00250000 </v>
   <v>       0.00250000 </v>
   <v>       0.00250000 </v>
   <v>       0.00250000 </v>
   <v>       0.00250000 </v>
   <v>       0.00250000 </v>
   <v>       0.00250000 </v>
   <v>       0.00250000 </v>
   <v>       0.00250000 </v>
   <v>       0.00250000 </v>
   <v>       0.00250000 </v>
   <v>       0.00250000 </v>
   <v>       0.00250000 </v>
   <v>       0.00250000 </v>
   <v>       0.00250000 </v>
   <v>       0.00250000 </v>
   <v>       0.00250000 </v>
   <v>       0.00250000 </v>
   <v>       0.00250000 </v>
   <v>       0.00250000 </v>
   <v>       0.00250000 </v>
   <v>       0.00250000 </v>
   <v>       0.00250000 </v>
   <v>       0.00250000 </v>
   <v>       0.00250000 </v>
   <v>       0.00250000 </v>
   <v>       0.00250000 </v>
   <v>       0.00250000 </v>
   <v>       0.00250000 </v>
   <v>       0.00250000 </v>
   <v>       0.00250000 </v>
   <v>       0.00250000 </v>
   <v>       0.00250000 </v>
   <v>       0.00250000 </v>
   <v>       0.00250000 </v>
   <v>       0.00250000 </v>
   <v>       0.00250000 </v>
   <v>       0.00250000 </v>
   <v>       0.00250000 </v>
   <v>       0.00250000 </v>
   <v>       0.00250000 </v>
   <v>       0.00250000 </v>
   <v>       0.00250000 </v>
   <v>       0.00250000 </v>
   <v>       0.00250000 </v>
   <v>       0.00250000 </v>
   <v>       0.00250000 </v>
   <v>       0.00250000 </v>
   <v>       0.00250000 </v>
   <v>       0.00250000 </v>
   <v>       0.00250000 </v>
   <v>       0.00250000 </v>
   <v>       0.00250000 </v>
   <v>       0.00250000 </v>
   <v>       0.00250000 </v>
   <v>       0.00250000 </v>
   <v>       0.00250000 </v>
   <v>       0.00250000 </v>
   <v>       0.00250000 </v>
   <v>       0.00250000 </v>
   <v>       0.00250000 </v>
   <v>       0.00250000 </v>
   <v>       0.00250000 </v>
   <v>       0.00250000 </v>
   <v>       0.00250000 </v>
   <v>       0.00250000 </v>
   <v>       0.00250000 </v>
   <v>       0.00250000 </v>
   <v>       0.00250000 </v>
   <v>       0.00250000 </v>
   <v>       0.00250000 </v>
   <v>       0.00250000 </v>
   <v>       0.00250000 </v>
   <v>       0.00250000 </v>
   <v>       0.00250000 </v>
   <v>       0.00250000 </v>
   <v>       0.00250000 </v>
   <v>       0.00250000 </v>
   <v>       0.00250000 </v>
   <v>       0.00250000 </v>
   <v>       0.00250000 </v>
   <v>       0.00250000 </v>
   <v>       0.00250000 </v>
   <v>       0.00250000 </v>
   <v>       0.00250000 </v>
   <v>       0.00250000 </v>
   <v>       0.00250000 </v>
   <v>       0.00250000 </v>
   <v>       0.00250000 </v>
   <v>       0.00250000 </v>
   <v>       0.00250000 </v>
   <v>       0.00250000 </v>
   <v>       0.00250000 </v>
   <v>       0.00250000 </v>
   <v>       0.00250000 </v>
   <v>       0.00250000 </v>
   <v>       0.00250000 </v>
   <v>       0.00250000 </v>
   <v>       0.00250000 </v>
   <v>       0.00250000 </v>
   <v>       0.00250000 </v>
   <v>       0.00250000 </v>
   <v>       0.00250000 </v>
   <v>       0.00250000 </v>
   <v>       0.00250000 </v>
   <v>       0.00250000 </v>
   <v>       0.00250000 </v>
   <v>       0.00250000 </v>
   <v>       0.00250000 </v>
   <v>       0.00250000 </v>
   <v>       0.00250000 </v>
   <v>       0.00250000 </v>
   <v>       0.00250000 </v>
   <v>       0.00250000 </v>
   <v>       0.00250000 </v>
   <v>       0.00250000 </v>
   <v>       0.00250000 </v>
   <v>       0.00250000 </v>
   <v>       0.00250000 </v>
   <v>       0.00250000 </v>
   <v>       0.00250000 </v>
   <v>       0.00250000 </v>
   <v>       0.00250000 </v>
   <v>       0.00250000 </v>
   <v>       0.00250000 </v>
   <v>       0.00250000 </v>
   <v>       0.00250000 </v>
   <v>       0.00250000 </v>
   <v>       0.00250000 </v>
   <v>       0.00250000 </v>
   <v>       0.00250000 </v>
   <v>       0.00250000 </v>
   <v>       0.00250000 </v>
   <v>       0.00250000 </v>
   <v>       0.00250000 </v>
   <v>       0.00250000 </v>
   <v>       0.00250000 </v>
   <v>       0.00250000 </v>
   <v>       0.00250000 </v>
   <v>       0.00250000 </v>
   <v>       0.00250000 </v>
   <v>       0.00250000 </v>
   <v>       0.00250000 </v>
  </varray>
 </kpoints>
 <parameters>
  <separator name="general" >
   <i type="string" name="SYSTEM">fcc Si</i>
   <i type="logical" name="LCOMPAT"> F  </i>
  </separator>
  <separator name="electronic" >
   <i type="string" name="PREC">normal</i>
   <i name="ENMAX">    173.80700000</i>
   <i name="ENAUG">    385.84300000</i>
   <i name="EDIFF">      0.00010000</i>
   <i type="int" name="IALGO">    38</i>
   <i type="int" name="IWAVPR">    10</i>
   <i type="int" name="NBANDS">    16</i>
   <i type="int" name="NBANDSLOW">    -1</i>
   <i type="int" name="NBANDSHIGH">    -1</i>
   <i name="NELECT">      8.00000000</i>
   <i type="int" name="TURBO">     0</i>
   <i type="int" name="IRESTART">     0</i>
   <i type="int" name="NREBOOT">     0</i>
   <i type="int" name="NMIN">     0</i>
   <i name="EREF">      0.00000000</i>
   <separator name="electronic smearing" >
    <i type="int" name="ISMEAR">     0</i>
    <i name="SIGMA">      0.10000000</i>
    <i name="KSPACING">      0.50000000</i>
    <i type="logical" name="KGAMMA"> T  </i>
    <i type="logical" name="KBLOWUP"> T  </i>
   </separator>
   <separator name="electronic projectors" >
    <i type="logical" name="LREAL"> F  </i>
    <v name="ROPT">      0.00000000</v>
    <i type="int" name="LMAXPAW">  -100</i>
    <i type="int" name="LMAXMIX">     2</i>
    <i type="logical" name="NLSPLINE"> F  </i>
   </separator>
   <separator name="electronic startup" >
    <i type="int" name="ISTART">     0</i>
    <i type="int" name="ICHARG">    11</i>
    <i type="int" name="INIWAV">     1</i>
   </separator>
   <separator name="electronic spin" >
    <i type="int" name="ISPIN">     1</i>
    <i type="logical" name="LNONCOLLINEAR"> F  </i>
    <v name="MAGMOM">      1.00000000      1.00000000</v>
    <i name="NUPDOWN">     -1.00000000</i>
    <i type="logical" name="LSORBIT"> F  </i>
    <v name="SAXIS">      0.00000000      0.00000000      1.00000000</v>
    <i type="logical" name="LSPIRAL"> F  </i>
    <v name="QSPIRAL">      0.00000000      0.00000000      0.00000000</v>
    <i type="logical" name="LZEROZ"> F  </i>
   </separator>
   <separator name="electronic exchange-correlation" >
    <i type="logical" name="LASPH"> F  </i>
    <i type="logical" name="LMETAGGA"> F  </i>
   </separator>
   <separator name="electronic convergence" >
    <i type="int" name="NELM">    60</i>
    <i type="int" name="NELMDL">    -5</i>
    <i type="int" name="NELMIN">     2</i>
    <i name="ENINI">    173.80700000</i>
    <separator name="electronic convergence detail" >
     <i type="logical" name="LDIAG"> T  </i>
     <i type="logical" name="LSUBROT"> F  </i>
     <i name="WEIMIN">      0.00000000</i>
     <i name="EBREAK">      0.00000156</i>
     <i name="DEPER">      0.30000000</i>
     <i type="int" name="NRMM">     4</i>
     <i name="TIME">      0.40000000</i>
    </separator>
   </separator>
   <separator name="electronic mixer" >
    <i name="AMIX">      0.40000000</i>
    <i name="BMIX">      1.00000000</i>
    <i name="AMIN">      0.10000000</i>
    <i name="AMIX_MAG">      1.60000000</i>
    <i name="BMIX_MAG">      1.00000000</i>
    <separator name="electronic mixer details" >
     <i type="int" name="IMIX">     4</i>
     <i type="logical" name="MIXFIRST"> F  </i>
     <i type="int" name="MAXMIX">   -45</i>
     <i name="WC">    100.00000000</i>
     <i type="int" name="INIMIX">     1</i>
     <i type="int" name="MIXPRE">     1</i>
     <i type="int" name="MREMOVE">     5</i>
    </separator>
   </separator>
   <separator name="electronic dipolcorrection" >
    <i type="logical" name="LDIPOL"> F  </i>
    <i type="logical" name="LMONO"> F  </i>
    <i type="int" name="IDIPOL">     0</i>
    <i name="EPSILON">      1.00000000</i>
    <v name="DIPOL">   -100.00000000   -100.00000000   -100.00000000</v>
    <i name="EFIELD">      0.00000000</i>
   </separator>
  </separator>
  <separator name="grids" >
   <i type="int" name="NGX">    14</i>
   <i type="int" name="NGY">    14</i>
   <i type="int" name="NGZ">    14</i>
   <i type="int" name="NGXF">    28</i>
   <i type="int" name="NGYF">    28</i>
   <i type="int" name="NGZF">    28</i>
   <i type="logical" name="ADDGRID"> F  </i>
  </separator>
  <separator name="ionic" >
   <i type="int" name="NSW">     0</i>
   <i type="int" name="IBRION">    -1</i>
   <i type="int" name="MDALGO">     0</i>
   <i type="int" name="ISIF">     2</i>
   <i name="PSTRESS">      0.00000000</i>
   <i name="EDIFFG">      0.00100000</i>
   <i type="int" name="NFREE">     0</i>
   <i name="POTIM">      0.50000000</i>
   <i name="SMASS">     -3.00000000</i>
   <i name="SCALEE">      1.00000000</i>
  </separator>
  <separator name="ionic md" >
   <i name="TEBEG">      0.00010000</i>
   <i name="TEEND">      0.00010000</i>
   <i type="int" name="NBLOCK">     1</i>
   <i type="int" name="KBLOCK">     1</i>
   <i type="int" name="NPACO">   256</i>
   <i name="APACO">     10.00000000</i>
  </separator>
  <separator name="symmetry" >
   <i type="int" name="ISYM">     2</i>
   <i name="SYMPREC">      0.00001000</i>
  </separator>
  <separator name="dos" >
   <i type="int" name="LORBIT">    11</i>
   <v name="RWIGS">     -1.00000000</v>
   <i type="int" name="NEDOS">   301</i>
   <i name="EMIN">     10.00000000</i>
   <i name="EMAX">    -10.00000000</i>
   <i name="EFERMI">      0.00000000</i>
  </separator>
  <separator name="writing" >
   <i type="int" name="NWRITE">     2</i>
   <i type="logical" name="LWAVE"> T  </i>
   <i type="logical" name="LDOWNSAMPLE"> F  </i>
   <i type="logical" name="LCHARG"> T  </i>
   <i type="logical" name="LPARD"> F  </i>
   <i type="logical" name="LVTOT"> F  </i>
   <i type="logical" name="LVHAR"> F  </i>
   <i type="logical" name="LELF"> F  </i>
   <i type="logical" name="LOPTICS"> F  </i>
   <v name="STM">      0.00000000      0.00000000      0.00000000      0.00000000      0.00000000      0.00000000      0.00000000</v>
  </separator>
  <separator name="performance" >
   <i type="int" name="NPAR">    16</i>
   <i type="int" name="NSIM">     4</i>
   <i type="int" name="NBLK">    -1</i>
   <i type="logical" name="LPLANE"> T  </i>
   <i type="logical" name="LSCALAPACK"> T  </i>
   <i type="logical" name="LSCAAWARE"> F  </i>
   <i type="logical" name="LSCALU"> F  </i>
   <i type="logical" name="LASYNC"> F  </i>
   <i type="logical" name="LORBITALREAL"> F  </i>
  </separator>
  <separator name="miscellaneous" >
   <i type="int" name="IDIOT">     3</i>
   <i type="int" name="PHON_NSTRUCT">    -1</i>
   <i type="logical" name="LMUSIC"> F  </i>
   <v name="POMASS">     72.61000000</v>
   <v name="DARWINR">      0.00000000</v>
   <v name="DARWINV">      1.00000000</v>
   <i type="logical" name="LCORR"> T  </i>
  </separator>
  <i type="logical" name="GGA_COMPAT"> T  </i>
  <i type="logical" name="LBERRY"> F  </i>
  <i type="int" name="ICORELEVEL">     0</i>
  <i type="logical" name="LDAU"> F  </i>
  <i type="int" name="I_CONSTRAINED_M">     0</i>
  <separator name="electronic exchange-correlation" >
   <i type="string" name="GGA">--</i>
   <i type="int" name="VOSKOWN">     0</i>
   <i type="logical" name="LHFCALC"> F  </i>
   <i type="string" name="PRECFOCK"></i>
   <i type="logical" name="LSYMGRAD"> F  </i>
   <i type="logical" name="LHFONE"> F  </i>
   <i type="logical" name="LRHFCALC"> F  </i>
   <i type="logical" name="LTHOMAS"> F  </i>
   <i type="logical" name="LMODELHF"> F  </i>
   <i type="logical" name="LFOCKACE"> F  </i>
   <i name="ENCUT4O">     -1.00000000</i>
   <i type="int" name="EXXOEP">     0</i>
   <i type="int" name="FOURORBIT">     0</i>
   <i name="AEXX">      0.00000000</i>
   <i name="HFALPHA">      0.00000000</i>
   <i name="MCALPHA">      0.00000000</i>
   <i name="ALDAX">      1.00000000</i>
   <i name="AGGAX">      1.00000000</i>
   <i name="ALDAC">      1.00000000</i>
   <i name="AGGAC">      1.00000000</i>
   <i type="int" name="NKREDX">     1</i>
   <i type="int" name="NKREDY">     1</i>
   <i type="int" name="NKREDZ">     1</i>
   <i type="logical" name="SHIFTRED"> F  </i>
   <i type="logical" name="ODDONLY"> F  </i>
   <i type="logical" name="EVENONLY"> F  </i>
   <i type="int" name="LMAXFOCK">     0</i>
   <i type="int" name="NMAXFOCKAE">     0</i>
   <i type="logical" name="LFOCKAEDFT"> F  </i>
   <i name="HFSCREEN">      0.00000000</i>
   <i name="HFSCREENC">      0.00000000</i>
   <i type="int" name="NBANDSGWLOW">     0</i>
  </separator>
  <separator name="vdW DFT" >
   <i type="logical" name="LUSE_VDW"> F  </i>
   <i type="int" name="IVDW_NL">     1</i>
   <i type="logical" name="LSPIN_VDW"> F  </i>
   <i name="Zab_VDW">     -0.84910000</i>
   <i name="PARAM1">      0.12340000</i>
   <i name="PARAM2">      1.00000000</i>
   <i name="PARAM3">      0.00000000</i>
  </separator>
  <separator name="model GW" >
   <i type="int" name="MODEL_GW">     0</i>
   <i name="MODEL_EPS0">     13.71041785</i>
   <i name="MODEL_ALPHA">      1.00000000</i>
  </separator>
  <separator name="linear response parameters" >
   <i type="logical" name="LEPSILON"> F  </i>
   <i type="logical" name="LRPA"> F  </i>
   <i type="logical" name="LNABLA"> F  </i>
   <i type="logical" name="LVEL"> F  </i>
   <i name="CSHIFT">      0.10000000</i>
   <i name="OMEGAMAX">     -1.00000000</i>
   <i name="DEG_THRESHOLD">      0.00200000</i>
   <i name="RTIME">     -0.10000000</i>
   <i name="WPLASMAI">      0.00000000</i>
   <v name="DFIELD">      0.00000000      0.00000000      0.00000000</v>
   <v name="WPLASMA">      0.00000000      0.00000000      0.00000000      0.00000000      0.00000000      0.00000000      0.00000000      0.00000000      0.00000000</v>
  </separator>
  <separator name="orbital magnetization" >
   <i type="logical" name="NUCIND"> F  </i>
   <v name="MAGPOS">      0.00000000      0.00000000      0.00000000</v>
   <i type="logical" name="LNICSALL"> T  </i>
   <i type="logical" name="ORBITALMAG"> F  </i>
   <i type="logical" name="LMAGBLOCH"> F  </i>
   <i type="logical" name="LCHIMAG"> F  </i>
   <i type="logical" name="LGAUGE"> T  </i>
   <i type="int" name="MAGATOM">     0</i>
   <v name="MAGDIPOL">      0.00000000      0.00000000      0.00000000</v>
   <v name="AVECCONST">      0.00000000      0.00000000      0.00000000</v>
  </separator>
  <separator name="response functions" >
   <i type="logical" name="LALL_IN_ONE"> F  </i>
   <i type="int" name="IALL_IN_ONE">    -1</i>
   <i type="int" name="NBANDS_WAVE">    -1</i>
   <i type="logical" name="LFINITE_TEMPERATURE"> F  </i>
   <i type="logical" name="LADDER"> F  </i>
   <i type="logical" name="LRPAFORCE"> F  </i>
   <i type="logical" name="LFXC"> F  </i>
   <i type="logical" name="LHARTREE"> T  </i>
   <i type="int" name="IBSE">     0</i>
   <v type="int" name="KPOINT">    -1     0     0     0</v>
   <i type="logical" name="LTCTC"> F  </i>
   <i type="logical" name="LTCTE"> F  </i>
   <i type="logical" name="LTETE"> F  </i>
   <i type="logical" name="LTRIPLET"> F  </i>
   <i type="logical" name="LFXCEPS"> F  </i>
   <i type="logical" name="LFXHEG"> F  </i>
   <i type="int" name="NATURALO">     2</i>
   <i type="logical" name="LHOLEGF"> F  </i>
   <i type="logical" name="L2ORDER"> F  </i>
   <i type="logical" name="LDMP1"> F  </i>
   <i type="logical" name="LMP2LT"> F  </i>
   <i type="logical" name="LSMP2LT"> F  </i>
   <i type="logical" name="LGWLF"> F  </i>
   <i name="ENCUTGW">     -1.60000002</i>
   <i name="ENCUTGWSOFT">     -1.60000002</i>
   <i name="ENCUTLF">     -1.00000000</i>
   <i type="logical" name="LESF_SPLINES"> F  </i>
   <i type="int" name="LMAXMP2">    -1</i>
   <i name="SCISSOR">      0.00000000</i>
   <i type="int" name="NOMEGA">     0</i>
   <i type="int" name="NOMEGAR">     0</i>
   <i type="int" name="NBANDSGW">    -1</i>
   <i type="int" name="NBANDSO">    -1</i>
   <i type="int" name="NBANDSV">    -1</i>
   <i type="int" name="NELMGW">     1</i>
   <i type="int" name="NELMHF">     1</i>
   <i type="int" name="DIM">     3</i>
   <i type="int" name="IESPILON">     4</i>
   <i type="int" name="ANTIRES">     0</i>
   <i name="OMEGAMAX">    -30.00000000</i>
   <i name="OMEGAMIN">    -30.00000000</i>
   <i name="OMEGATL">   -200.00000000</i>
   <i type="int" name="OMEGAGRID">     0</i>
   <i name="CSHIFT">     -0.10000000</i>
   <i type="logical" name="LSELFENERGY"> F  </i>
   <i type="logical" name="LSPECTRAL"> F  </i>
   <i type="logical" name="LSPECTRALGW"> F  </i>
   <i type="logical" name="LSINGLES"> F  </i>
   <i type="logical" name="LFERMIGW"> F  </i>
   <i type="logical" name="ODDONLYGW"> F  </i>
   <i type="logical" name="EVENONLYGW"> F  </i>
   <i type="int" name="NKREDLFX">     1</i>
   <i type="int" name="NKREDLFY">     1</i>
   <i type="int" name="NKREDLFZ">     1</i>
   <i type="int" name="MAXMEM">  2800</i>
   <i type="int" name="TELESCOPE">     0</i>
   <i type="int" name="NTAUPAR">    -1</i>
   <i type="int" name="NOMEGAPAR">    -1</i>
   <i name="DAMP_NEWTON">      0.80000001</i>
   <i name="LAMBDA">      1.00000000</i>
  </separator>
  <separator name="External order field" >
   <i name="OFIELD_KAPPA">      0.00000000</i>
   <v name="OFIELD_K">      0.00000000      0.00000000      0.00000000</v>
   <i name="OFIELD_Q6_NEAR">      0.00000000</i>
   <i name="OFIELD_Q6_FAR">      0.00000000</i>
   <i name="OFIELD_A">      0.00000000</i>
  </separator>
  <separator name="optional k-points parameters" >
   <i type="int" name="KPOINTS_OPT_MODE">     1</i>
   <i type="logical" name="LKPOINTS_OPT"> F  </i>
  </separator>
 </parameters>
 <atominfo>
  <atoms>       2 </atoms>
  <types>       1 </types>
  <array name="atoms" >
   <dimension dim="1">ion</dimension>
   <field type="string">element</field>
   <field type="int">atomtype</field>
   <set>
    <rc><c>Ge</c><c>   1</c></rc>
    <rc><c>Ge</c><c>   1</c></rc>
   </set>
  </array>
  <array name="atomtypes" >
   <dimension dim="1">type</dimension>
   <field type="int">atomspertype</field>
   <field type="string">element</field>
   <field>mass</field>
   <field>valence</field>
   <field type="string">pseudopotential</field>
   <set>
    <rc><c>   2</c><c>Ge</c><c>     72.61000000</c><c>      4.00000000</c><c>  PAW_PBE Ge 05Jan2001                  </c></rc>
   </set>
  </array>
 </atominfo>
 <structure name="initialpos" >
  <crystal>
   <varray name="basis" >
    <v>       0.00000000       2.83770000       2.83770000 </v>
    <v>       2.83770000       0.00000000       2.83770000 </v>
    <v>       2.83770000       2.83770000       0.00000000 </v>
   </varray>
   <i name="volume">     45.70139284 </i>
   <varray name="rec_basis" >
    <v>      -0.17619903       0.17619903       0.17619903 </v>
    <v>       0.17619903      -0.17619903       0.17619903 </v>
    <v>       0.17619903       0.17619903      -0.17619903 </v>
   </varray>
  </crystal>
  <varray name="positions" >
   <v>       0.75000000       0.75000000       0.75000000 </v>
   <v>       0.50000000       0.50000000       0.50000000 </v>
  </varray>
 </structure>
 <calculation>
  <scstep>
   <time name="dav">    0.87    0.87</time>
   <time name="total">    0.87    0.87</time>
   <energy>
    <i name="alphaZ">     16.72879570 </i>
    <i name="ewald">   -218.68061112 </i>
    <i name="hartreedc">    -16.08200476 </i>
    <i name="XCdc">    -14.41088710 </i>
    <i name="pawpsdc">    490.79096186 </i>
    <i name="pawaedc">   -462.15891944 </i>
    <i name="eentropy">     -0.00377774 </i>
    <i name="bandstr">     -9.45723234 </i>
    <i name="atom">    209.98099742 </i>
    <i name="e_fr_energy">     -3.29267753 </i>
    <i name="e_wo_entrp">     -3.28889978 </i>
    <i name="e_0_energy">     -3.29078866 </i>
   </energy>
  </scstep>
  <scstep>
   <time name="dav">    1.16    1.16</time>
   <time name="total">    1.16    1.16</time>
   <energy>
    <i name="e_fr_energy">     -9.03948347 </i>
    <i name="e_wo_entrp">     -9.03638575 </i>
    <i name="e_0_energy">     -9.03793461 </i>
   </energy>
  </scstep>
  <scstep>
   <time name="dav">    0.97    0.97</time>
   <time name="total">    0.97    0.97</time>
   <energy>
    <i name="e_fr_energy">     -9.06069351 </i>
    <i name="e_wo_entrp">     -9.05759040 </i>
    <i name="e_0_energy">     -9.05914195 </i>
   </energy>
  </scstep>
  <scstep>
   <time name="dav">    1.66    1.66</time>
   <time name="total">    1.66    1.66</time>
   <energy>
    <i name="e_fr_energy">     -9.06070088 </i>
    <i name="e_wo_entrp">     -9.05759774 </i>
    <i name="e_0_energy">     -9.05914931 </i>
   </energy>
  </scstep>
  <scstep>
   <time name="dav">    0.95    0.96</time>
   <time name="total">    0.96    0.96</time>
   <energy>
    <i name="e_fr_energy">     -9.06070088 </i>
    <i name="e_wo_entrp">     -9.05759774 </i>
    <i name="e_0_energy">     -9.05914931 </i>
   </energy>
  </scstep>
  <scstep>
   <time name="dav">    1.21    1.21</time>
   <time name="total">    1.21    1.21</time>
   <energy>
    <i name="alphaZ">     16.72879570 </i>
    <i name="ewald">   -218.68061112 </i>
    <i name="hartreedc">    -16.08200476 </i>
    <i name="XCdc">    -14.41088710 </i>
    <i name="pawpsdc">    490.79096186 </i>
    <i name="pawaedc">   -462.15891944 </i>
    <i name="eentropy">     -0.00310314 </i>
    <i name="bandstr">    -15.22593030 </i>
    <i name="atom">    209.98099742 </i>
    <i name="e_fr_energy">     -9.06070088 </i>
    <i name="e_wo_entrp">     -9.05759774 </i>
    <i name="e_0_energy">     -9.05914931 </i>
   </energy>
  </scstep>
  <structure>
   <crystal>
    <varray name="basis" >
     <v>       0.00000000       2.83770000       2.83770000 </v>
     <v>       2.83770000       0.00000000       2.83770000 </v>
     <v>       2.83770000       2.83770000       0.00000000 </v>
    </varray>
    <i name="volume">     45.70139284 </i>
    <varray name="rec_basis" >
     <v>      -0.17619903       0.17619903       0.17619903 </v>
     <v>       0.17619903      -0.17619903       0.17619903 </v>
     <v>       0.17619903       0.17619903      -0.17619903 </v>
    </varray>
   </crystal>
   <varray name="positions" >
    <v>       0.75000000       0.75000000       0.75000000 </v>
    <v>       0.50000000       0.50000000       0.50000000 </v>
   </varray>
  </structure>
  <varray name="forces" >
   <v>       0.00000000      -0.00000000      -0.00000000 </v>
   <v>      -0.00000000       0.00000000       0.00000000 </v>
  </varray>
  <varray name="stress" >
   <v>      30.07993846       0.00000000       0.00000000 </v>
   <v>       0.00000000      30.07993846       0.00000000 </v>
   <v>       0.00000000       0.00000000      30.07993846 </v>
  </varray>
  <energy>
   <i name="e_fr_energy">     -9.06070088 </i>
   <i name="e_wo_entrp">     -9.05759774 </i>
   <i name="e_0_energy">     -9.05914931 </i>
  </energy>
  <time name="totalsc">    7.49    7.59</time>
  <eigenvalues>
   <array>
    <dimension dim="1">band</dimension>
    <dimension dim="2">kpoint</dimension>
    <dimension dim="3">spin</dimension>
    <field>eigene</field>
    <field>occ</field>
    <set>
     <set comment="spin 1">
      <set comment="kpoint 1">
       <r>   -8.9747    1.0000 </r>
       <r>    3.7183    0.8827 </r>
       <r>    3.7406    0.8085 </r>
       <r>    3.7407    0.8083 </r>
       <r>    3.7407    0.8083 </r>
       <r>    6.2506    0.0000 </r>
       <r>    6.2507    0.0000 </r>
       <r>    6.2507    0.0000 </r>
       <r>   10.1392    0.0000 </r>
       <r>   12.9558    0.0000 </r>
       <r>   12.9558    0.0000 </r>
       <r>   14.4134    0.0000 </r>
       <r>   14.4134    0.0000 </r>
       <r>   14.4134    0.0000 </r>
       <r>   17.5142    0.0000 </r>
       <r>   27.8414    0.0000 </r>
      </set>
      <set comment="kpoint 2">
       <r>   -8.9720    1.0000 </r>
       <r>    3.4839    1.0000 </r>
       <r>    3.7267    0.8575 </r>
       <r>    3.7268    0.8574 </r>
       <r>    3.9742    0.0075 </r>
       <r>    6.2416    0.0000 </r>
       <r>    6.2679    0.0000 </r>
       <r>    6.2680    0.0000 </r>
       <r>   10.1543    0.0000 </r>
       <r>   12.9025    0.0000 </r>
       <r>   12.9585    0.0000 </r>
       <r>   14.4188    0.0000 </r>
       <r>   14.4188    0.0000 </r>
       <r>   14.4565    0.0000 </r>
       <r>   17.5389    0.0000 </r>
       <r>   27.6902    0.0000 </r>
      </set>
      <set comment="kpoint 3">
       <r>   -8.9641    1.0000 </r>
       <r>    3.2381    1.0000 </r>
       <r>    3.6861    0.9499 </r>
       <r>    3.6861    0.9498 </r>
       <r>    4.2171    0.0000 </r>
       <r>    6.2148    0.0000 </r>
       <r>    6.3186    0.0000 </r>
       <r>    6.3186    0.0000 </r>
       <r>   10.1992    0.0000 </r>
       <r>   12.7604    0.0000 </r>
       <r>   12.9665    0.0000 </r>
       <r>   14.4350    0.0000 </r>
       <r>   14.4350    0.0000 </r>
       <r>   14.5684    0.0000 </r>
       <r>   17.6129    0.0000 </r>
       <r>   27.3763    0.0000 </r>
      </set>
      <set comment="kpoint 4">
       <r>   -8.9508    1.0000 </r>
       <r>    2.9921    1.0000 </r>
       <r>    3.6218    0.9947 </r>
       <r>    3.6218    0.9946 </r>
       <r>    4.4581    0.0000 </r>
       <r>    6.1717    0.0000 </r>
       <r>    6.3995    0.0000 </r>
       <r>    6.3996    0.0000 </r>
       <r>   10.2726    0.0000 </r>
       <r>   12.5623    0.0000 </r>
       <r>   12.9800    0.0000 </r>
       <r>   14.4620    0.0000 </r>
       <r>   14.4620    0.0000 </r>
       <r>   14.7167    0.0000 </r>
       <r>   17.7358    0.0000 </r>
       <r>   27.0200    0.0000 </r>
      </set>
      <set comment="kpoint 5">
       <r>   -8.9322    1.0000 </r>
       <r>    2.7464    1.0000 </r>
       <r>    3.5381    0.9999 </r>
       <r>    3.5381    0.9999 </r>
       <r>    4.6970    0.0000 </r>
       <r>    6.1140    0.0000 </r>
       <r>    6.5066    0.0000 </r>
       <r>    6.5066    0.0000 </r>
       <r>   10.3725    0.0000 </r>
       <r>   12.3342    0.0000 </r>
       <r>   12.9988    0.0000 </r>
       <r>   14.4998    0.0000 </r>
       <r>   14.4999    0.0000 </r>
       <r>   14.8793    0.0000 </r>
       <r>   17.9070    0.0000 </r>
       <r>   26.6476    0.0000 </r>
      </set>
      <set comment="kpoint 6">
       <r>   -8.9083    1.0000 </r>
       <r>    2.5006    1.0000 </r>
       <r>    3.4391    1.0000 </r>
       <r>    3.4392    1.0000 </r>
       <r>    4.9315    0.0000 </r>
       <r>    6.0441    0.0000 </r>
       <r>    6.6355    0.0000 </r>
       <r>    6.6355    0.0000 </r>
       <r>   10.4966    0.0000 </r>
       <r>   12.0924    0.0000 </r>
       <r>   13.0230    0.0000 </r>
       <r>   14.5485    0.0000 </r>
       <r>   14.5485    0.0000 </r>
       <r>   15.0388    0.0000 </r>
       <r>   18.1229    0.0000 </r>
       <r>   26.2684    0.0000 </r>
      </set>
      <set comment="kpoint 7">
       <r>   -8.8791    1.0000 </r>
       <r>    2.2557    1.0000 </r>
       <r>    3.3296    1.0000 </r>
       <r>    3.3297    1.0000 </r>
       <r>    5.1625    0.0000 </r>
       <r>    5.9642    0.0000 </r>
       <r>    6.7825    0.0000 </r>
       <r>    6.7826    0.0000 </r>
       <r>   10.6436    0.0000 </r>
       <r>   11.8471    0.0000 </r>
       <r>   13.0528    0.0000 </r>
       <r>   14.6084    0.0000 </r>
       <r>   14.6084    0.0000 </r>
       <r>   15.1918    0.0000 </r>
       <r>   18.3808    0.0000 </r>
       <r>   25.8867    0.0000 </r>
      </set>
      <set comment="kpoint 8">
       <r>   -8.8447    1.0000 </r>
       <r>    2.0109    1.0000 </r>
       <r>    3.2115    1.0000 </r>
       <r>    3.2115    1.0000 </r>
       <r>    5.3855    0.0000 </r>
       <r>    5.8768    0.0000 </r>
       <r>    6.9436    0.0000 </r>
       <r>    6.9437    0.0000 </r>
       <r>   10.8090    0.0000 </r>
       <r>   11.6051    0.0000 </r>
       <r>   13.0878    0.0000 </r>
       <r>   14.6788    0.0000 </r>
       <r>   14.6788    0.0000 </r>
       <r>   15.3370    0.0000 </r>
       <r>   18.6759    0.0000 </r>
       <r>   25.5046    0.0000 </r>
      </set>
      <set comment="kpoint 9">
       <r>   -8.8049    1.0000 </r>
       <r>    1.7667    1.0000 </r>
       <r>    3.0881    1.0000 </r>
       <r>    3.0882    1.0000 </r>
       <r>    5.6001    0.0000 </r>
       <r>    5.7838    0.0000 </r>
       <r>    7.1165    0.0000 </r>
       <r>    7.1165    0.0000 </r>
       <r>   10.9916    0.0000 </r>
       <r>   11.3719    0.0000 </r>
       <r>   13.1282    0.0000 </r>
       <r>   14.7602    0.0000 </r>
       <r>   14.7602    0.0000 </r>
       <r>   15.4755    0.0000 </r>
       <r>   19.0038    0.0000 </r>
       <r>   25.1238    0.0000 </r>
      </set>
      <set comment="kpoint 10">
       <r>   -8.7599    1.0000 </r>
       <r>    1.5238    1.0000 </r>
       <r>    2.9618    1.0000 </r>
       <r>    2.9618    1.0000 </r>
       <r>    5.6877    0.0000 </r>
       <r>    5.8044    0.0000 </r>
       <r>    7.2991    0.0000 </r>
       <r>    7.2991    0.0000 </r>
       <r>   11.1524    0.0000 </r>
       <r>   11.1896    0.0000 </r>
       <r>   13.1740    0.0000 </r>
       <r>   14.8525    0.0000 </r>
       <r>   14.8525    0.0000 </r>
       <r>   15.6104    0.0000 </r>
       <r>   19.3611    0.0000 </r>
       <r>   24.7450    0.0000 </r>
      </set>
      <set comment="kpoint 11">
       <r>   -8.7097    1.0000 </r>
       <r>    1.2812    1.0000 </r>
       <r>    2.8337    1.0000 </r>
       <r>    2.8337    1.0000 </r>
       <r>    5.5886    0.0000 </r>
       <r>    5.9940    0.0000 </r>
       <r>    7.4891    0.0000 </r>
       <r>    7.4892    0.0000 </r>
       <r>   10.9512    0.0000 </r>
       <r>   11.4009    0.0000 </r>
       <r>   13.2252    0.0000 </r>
       <r>   14.9558    0.0000 </r>
       <r>   14.9558    0.0000 </r>
       <r>   15.7415    0.0000 </r>
       <r>   19.7412    0.0000 </r>
       <r>   24.3645    0.0000 </r>
      </set>
      <set comment="kpoint 12">
       <r>   -8.6542    1.0000 </r>
       <r>    1.0393    1.0000 </r>
       <r>    2.7054    1.0000 </r>
       <r>    2.7055    1.0000 </r>
       <r>    5.4890    0.0000 </r>
       <r>    6.1659    0.0000 </r>
       <r>    7.6858    0.0000 </r>
       <r>    7.6858    0.0000 </r>
       <r>   10.7733    0.0000 </r>
       <r>   11.6242    0.0000 </r>
       <r>   13.2817    0.0000 </r>
       <r>   15.0700    0.0000 </r>
       <r>   15.0700    0.0000 </r>
       <r>   15.8723    0.0000 </r>
       <r>   20.1417    0.0000 </r>
       <r>   23.9914    0.0000 </r>
      </set>
      <set comment="kpoint 13">
       <r>   -8.5935    1.0000 </r>
       <r>    0.7984    1.0000 </r>
       <r>    2.5784    1.0000 </r>
       <r>    2.5785    1.0000 </r>
       <r>    5.3899    0.0000 </r>
       <r>    6.3160    0.0000 </r>
       <r>    7.8880    0.0000 </r>
       <r>    7.8881    0.0000 </r>
       <r>   10.6239    0.0000 </r>
       <r>   11.8588    0.0000 </r>
       <r>   13.3437    0.0000 </r>
       <r>   15.1952    0.0000 </r>
       <r>   15.1952    0.0000 </r>
       <r>   16.0048    0.0000 </r>
       <r>   20.5601    0.0000 </r>
       <r>   23.6216    0.0000 </r>
      </set>
      <set comment="kpoint 14">
       <r>   -8.5277    1.0000 </r>
       <r>    0.5585    1.0000 </r>
       <r>    2.4525    1.0000 </r>
       <r>    2.4525    1.0000 </r>
       <r>    5.2922    0.0000 </r>
       <r>    6.4392    0.0000 </r>
       <r>    8.0946    0.0000 </r>
       <r>    8.0946    0.0000 </r>
       <r>   10.5081    0.0000 </r>
       <r>   12.1021    0.0000 </r>
       <r>   13.4110    0.0000 </r>
       <r>   15.3314    0.0000 </r>
       <r>   15.3314    0.0000 </r>
       <r>   16.1401    0.0000 </r>
       <r>   20.9929    0.0000 </r>
       <r>   23.2555    0.0000 </r>
      </set>
      <set comment="kpoint 15">
       <r>   -8.4566    1.0000 </r>
       <r>    0.3196    1.0000 </r>
       <r>    2.3296    1.0000 </r>
       <r>    2.3296    1.0000 </r>
       <r>    5.1970    0.0000 </r>
       <r>    6.5317    0.0000 </r>
       <r>    8.3055    0.0000 </r>
       <r>    8.3055    0.0000 </r>
       <r>   10.4309    0.0000 </r>
       <r>   12.3537    0.0000 </r>
       <r>   13.4849    0.0000 </r>
       <r>   15.4791    0.0000 </r>
       <r>   15.4791    0.0000 </r>
       <r>   16.2805    0.0000 </r>
       <r>   21.4385    0.0000 </r>
       <r>   22.8934    0.0000 </r>
      </set>
      <set comment="kpoint 16">
       <r>   -8.3804    1.0000 </r>
       <r>    0.0818    1.0000 </r>
       <r>    2.2086    1.0000 </r>
       <r>    2.2086    1.0000 </r>
       <r>    5.1042    0.0000 </r>
       <r>    6.5898    0.0000 </r>
       <r>    8.5190    0.0000 </r>
       <r>    8.5191    0.0000 </r>
       <r>   10.3957    0.0000 </r>
       <r>   12.6124    0.0000 </r>
       <r>   13.5631    0.0000 </r>
       <r>   15.6372    0.0000 </r>
       <r>   15.6373    0.0000 </r>
       <r>   16.4257    0.0000 </r>
       <r>   21.8950    0.0000 </r>
       <r>   22.5351    0.0000 </r>
      </set>
      <set comment="kpoint 17">
       <r>   -8.2992    1.0000 </r>
       <r>   -0.1551    1.0000 </r>
       <r>    2.0907    1.0000 </r>
       <r>    2.0907    1.0000 </r>
       <r>    5.0148    0.0000 </r>
       <r>    6.6123    0.0000 </r>
       <r>    8.7353    0.0000 </r>
       <r>    8.7353    0.0000 </r>
       <r>   10.4043    0.0000 </r>
       <r>   12.8772    0.0000 </r>
       <r>   13.6467    0.0000 </r>
       <r>   15.8063    0.0000 </r>
       <r>   15.8064    0.0000 </r>
       <r>   16.5771    0.0000 </r>
       <r>   22.1811    0.0000 </r>
       <r>   22.1811    0.0000 </r>
      </set>
      <set comment="kpoint 18">
       <r>   -8.2128    1.0000 </r>
       <r>   -0.3907    1.0000 </r>
       <r>    1.9764    1.0000 </r>
       <r>    1.9764    1.0000 </r>
       <r>    4.9292    0.0000 </r>
       <r>    6.6004    0.0000 </r>
       <r>    8.9538    0.0000 </r>
       <r>    8.9538    0.0000 </r>
       <r>   10.4555    0.0000 </r>
       <r>   13.1470    0.0000 </r>
       <r>   13.7357    0.0000 </r>
       <r>   15.9863    0.0000 </r>
       <r>   15.9863    0.0000 </r>
       <r>   16.7356    0.0000 </r>
       <r>   21.8315    0.0000 </r>
       <r>   21.8315    0.0000 </r>
      </set>
      <set comment="kpoint 19">
       <r>   -8.1214    1.0000 </r>
       <r>   -0.6252    1.0000 </r>
       <r>    1.8659    1.0000 </r>
       <r>    1.8659    1.0000 </r>
       <r>    4.8479    0.0000 </r>
       <r>    6.5574    0.0000 </r>
       <r>    9.1742    0.0000 </r>
       <r>    9.1742    0.0000 </r>
       <r>   10.5461    0.0000 </r>
       <r>   13.4207    0.0000 </r>
       <r>   13.8301    0.0000 </r>
       <r>   16.1771    0.0000 </r>
       <r>   16.1771    0.0000 </r>
       <r>   16.9016    0.0000 </r>
       <r>   21.4864    0.0000 </r>
       <r>   21.4864    0.0000 </r>
      </set>
      <set comment="kpoint 20">
       <r>   -8.0250    1.0000 </r>
       <r>   -0.8585    1.0000 </r>
       <r>    1.7594    1.0000 </r>
       <r>    1.7595    1.0000 </r>
       <r>    4.7712    0.0000 </r>
       <r>    6.4884    0.0000 </r>
       <r>    9.3961    0.0000 </r>
       <r>    9.3962    0.0000 </r>
       <r>   10.6712    0.0000 </r>
       <r>   13.6970    0.0000 </r>
       <r>   13.9300    0.0000 </r>
       <r>   16.3786    0.0000 </r>
       <r>   16.3786    0.0000 </r>
       <r>   17.0758    0.0000 </r>
       <r>   21.1461    0.0000 </r>
       <r>   21.1461    0.0000 </r>
      </set>
      <set comment="kpoint 21">
       <r>   -7.9236    1.0000 </r>
       <r>   -1.0904    1.0000 </r>
       <r>    1.6573    1.0000 </r>
       <r>    1.6573    1.0000 </r>
       <r>    4.6993    0.0000 </r>
       <r>    6.3987    0.0000 </r>
       <r>    9.6193    0.0000 </r>
       <r>    9.6193    0.0000 </r>
       <r>   10.8252    0.0000 </r>
       <r>   13.9743    0.0000 </r>
       <r>   14.0352    0.0000 </r>
       <r>   16.5905    0.0000 </r>
       <r>   16.5905    0.0000 </r>
       <r>   17.2584    0.0000 </r>
       <r>   20.8109    0.0000 </r>
       <r>   20.8109    0.0000 </r>
      </set>
      <set comment="kpoint 22">
       <r>   -7.8172    1.0000 </r>
       <r>   -1.3210    1.0000 </r>
       <r>    1.5596    1.0000 </r>
       <r>    1.5596    1.0000 </r>
       <r>    4.6325    0.0000 </r>
       <r>    6.2938    0.0000 </r>
       <r>    9.8435    0.0000 </r>
       <r>    9.8435    0.0000 </r>
       <r>   11.0027    0.0000 </r>
       <r>   14.1459    0.0000 </r>
       <r>   14.2510    0.0000 </r>
       <r>   16.8126    0.0000 </r>
       <r>   16.8127    0.0000 </r>
       <r>   17.4498    0.0000 </r>
       <r>   20.4811    0.0000 </r>
       <r>   20.4811    0.0000 </r>
      </set>
      <set comment="kpoint 23">
       <r>   -7.7060    1.0000 </r>
       <r>   -1.5501    1.0000 </r>
       <r>    1.4665    1.0000 </r>
       <r>    1.4665    1.0000 </r>
       <r>    4.5711    0.0000 </r>
       <r>    6.1782    0.0000 </r>
       <r>   10.0683    0.0000 </r>
       <r>   10.0683    0.0000 </r>
       <r>   11.1990    0.0000 </r>
       <r>   14.2620    0.0000 </r>
       <r>   14.5250    0.0000 </r>
       <r>   17.0446    0.0000 </r>
       <r>   17.0446    0.0000 </r>
       <r>   17.6505    0.0000 </r>
       <r>   20.1572    0.0000 </r>
       <r>   20.1572    0.0000 </r>
      </set>
      <set comment="kpoint 24">
       <r>   -7.5899    1.0000 </r>
       <r>   -1.7776    1.0000 </r>
       <r>    1.3782    1.0000 </r>
       <r>    1.3782    1.0000 </r>
       <r>    4.5153    0.0000 </r>
       <r>    6.0559    0.0000 </r>
       <r>   10.2936    0.0000 </r>
       <r>   10.2936    0.0000 </r>
       <r>   11.4100    0.0000 </r>
       <r>   14.3835    0.0000 </r>
       <r>   14.7936    0.0000 </r>
       <r>   17.2857    0.0000 </r>
       <r>   17.2857    0.0000 </r>
       <r>   17.8605    0.0000 </r>
       <r>   19.8399    0.0000 </r>
       <r>   19.8399    0.0000 </r>
      </set>
      <set comment="kpoint 25">
       <r>   -7.4688    1.0000 </r>
       <r>   -2.0046    1.0000 </r>
       <r>    1.2947    1.0000 </r>
       <r>    1.2948    1.0000 </r>
       <r>    4.4655    0.0000 </r>
       <r>    5.9291    0.0000 </r>
       <r>   10.5194    0.0000 </r>
       <r>   10.5194    0.0000 </r>
       <r>   11.6325    0.0000 </r>
       <r>   14.5105    0.0000 </r>
       <r>   15.0544    0.0000 </r>
       <r>   17.5355    0.0000 </r>
       <r>   17.5355    0.0000 </r>
       <r>   18.0802    0.0000 </r>
       <r>   19.5301    0.0000 </r>
       <r>   19.5301    0.0000 </r>
      </set>
      <set comment="kpoint 26">
       <r>   -7.3432    1.0000 </r>
       <r>   -2.2292    1.0000 </r>
       <r>    1.2159    1.0000 </r>
       <r>    1.2159    1.0000 </r>
       <r>    4.4208    0.0000 </r>
       <r>    5.8019    0.0000 </r>
       <r>   10.7445    0.0000 </r>
       <r>   10.7445    0.0000 </r>
       <r>   11.8637    0.0000 </r>
       <r>   14.6429    0.0000 </r>
       <r>   15.3018    0.0000 </r>
       <r>   17.7885    0.0000 </r>
       <r>   17.7885    0.0000 </r>
       <r>   18.3093    0.0000 </r>
       <r>   19.2328    0.0000 </r>
       <r>   19.2328    0.0000 </r>
      </set>
      <set comment="kpoint 27">
       <r>   -7.2128    1.0000 </r>
       <r>   -2.4516    1.0000 </r>
       <r>    1.1425    1.0000 </r>
       <r>    1.1425    1.0000 </r>
       <r>    4.3825    0.0000 </r>
       <r>    5.6754    0.0000 </r>
       <r>   10.9690    0.0000 </r>
       <r>   10.9690    0.0000 </r>
       <r>   12.1017    0.0000 </r>
       <r>   14.7807    0.0000 </r>
       <r>   15.5318    0.0000 </r>
       <r>   18.0349    0.0000 </r>
       <r>   18.0349    0.0000 </r>
       <r>   18.5486    0.0000 </r>
       <r>   18.9587    0.0000 </r>
       <r>   18.9587    0.0000 </r>
      </set>
      <set comment="kpoint 28">
       <r>   -7.0779    1.0000 </r>
       <r>   -2.6721    1.0000 </r>
       <r>    1.0742    1.0000 </r>
       <r>    1.0743    1.0000 </r>
       <r>    4.3503    0.0000 </r>
       <r>    5.5511    0.0000 </r>
       <r>   11.1924    0.0000 </r>
       <r>   11.1924    0.0000 </r>
       <r>   12.3447    0.0000 </r>
       <r>   14.9239    0.0000 </r>
       <r>   15.7386    0.0000 </r>
       <r>   18.2199    0.0000 </r>
       <r>   18.2199    0.0000 </r>
       <r>   18.7628    0.0000 </r>
       <r>   18.7628    0.0000 </r>
       <r>   18.7979    0.0000 </r>
      </set>
      <set comment="kpoint 29">
       <r>   -6.9384    1.0000 </r>
       <r>   -2.8906    1.0000 </r>
       <r>    1.0112    1.0000 </r>
       <r>    1.0113    1.0000 </r>
       <r>    4.3243    0.0000 </r>
       <r>    5.4302    0.0000 </r>
       <r>   11.4141    0.0000 </r>
       <r>   11.4141    0.0000 </r>
       <r>   12.5912    0.0000 </r>
       <r>   15.0727    0.0000 </r>
       <r>   15.9156    0.0000 </r>
       <r>   18.1702    0.0000 </r>
       <r>   18.1702    0.0000 </r>
       <r>   18.8186    0.0000 </r>
       <r>   18.8186    0.0000 </r>
       <r>   19.0573    0.0000 </r>
      </set>
      <set comment="kpoint 30">
       <r>   -6.7943    1.0000 </r>
       <r>   -3.1069    1.0000 </r>
       <r>    0.9535    1.0000 </r>
       <r>    0.9535    1.0000 </r>
       <r>    4.3047    0.0000 </r>
       <r>    5.3134    0.0000 </r>
       <r>   11.6332    0.0000 </r>
       <r>   11.6332    0.0000 </r>
       <r>   12.8401    0.0000 </r>
       <r>   15.2268    0.0000 </r>
       <r>   16.0560    0.0000 </r>
       <r>   17.9503    0.0000 </r>
       <r>   17.9503    0.0000 </r>
       <r>   19.0625    0.0000 </r>
       <r>   19.0625    0.0000 </r>
       <r>   19.3268    0.0000 </r>
      </set>
      <set comment="kpoint 31">
       <r>   -6.6459    1.0000 </r>
       <r>   -3.3209    1.0000 </r>
       <r>    0.9011    1.0000 </r>
       <r>    0.9011    1.0000 </r>
       <r>    4.2914    0.0000 </r>
       <r>    5.2015    0.0000 </r>
       <r>   11.8488    0.0000 </r>
       <r>   11.8488    0.0000 </r>
       <r>   13.0903    0.0000 </r>
       <r>   15.3864    0.0000 </r>
       <r>   16.1539    0.0000 </r>
       <r>   17.6993    0.0000 </r>
       <r>   17.6993    0.0000 </r>
       <r>   19.1994    0.0000 </r>
       <r>   19.3561    0.0000 </r>
       <r>   19.3561    0.0000 </r>
      </set>
      <set comment="kpoint 32">
       <r>   -6.4930    1.0000 </r>
       <r>   -3.5325    1.0000 </r>
       <r>    0.8561    1.0000 </r>
       <r>    0.8562    1.0000 </r>
       <r>    4.2847    0.0000 </r>
       <r>    5.0952    0.0000 </r>
       <r>   12.0595    0.0000 </r>
       <r>   12.0596    0.0000 </r>
       <r>   13.3411    0.0000 </r>
       <r>   15.5523    0.0000 </r>
       <r>   16.2053    0.0000 </r>
       <r>   17.4482    0.0000 </r>
       <r>   17.4482    0.0000 </r>
       <r>   18.9413    0.0000 </r>
       <r>   19.6706    0.0000 </r>
       <r>   19.6706    0.0000 </r>
      </set>
      <set comment="kpoint 33">
       <r>   -6.3360    1.0000 </r>
       <r>   -3.7415    1.0000 </r>
       <r>    0.8146    1.0000 </r>
       <r>    0.8146    1.0000 </r>
       <r>    4.2846    0.0000 </r>
       <r>    4.9946    0.0000 </r>
       <r>   12.2631    0.0000 </r>
       <r>   12.2631    0.0000 </r>
       <r>   13.5912    0.0000 </r>
       <r>   15.7229    0.0000 </r>
       <r>   16.2089    0.0000 </r>
       <r>   17.2053    0.0000 </r>
       <r>   17.2053    0.0000 </r>
       <r>   18.6887    0.0000 </r>
       <r>   19.9979    0.0000 </r>
       <r>   19.9979    0.0000 </r>
      </set>
      <set comment="kpoint 34">
       <r>   -6.1747    1.0000 </r>
       <r>   -3.9480    1.0000 </r>
       <r>    0.7784    1.0000 </r>
       <r>    0.7785    1.0000 </r>
       <r>    4.2910    0.0000 </r>
       <r>    4.9001    0.0000 </r>
       <r>   12.4570    0.0000 </r>
       <r>   12.4571    0.0000 </r>
       <r>   13.8401    0.0000 </r>
       <r>   15.8989    0.0000 </r>
       <r>   16.1668    0.0000 </r>
       <r>   16.9758    0.0000 </r>
       <r>   16.9758    0.0000 </r>
       <r>   18.4416    0.0000 </r>
       <r>   20.3361    0.0000 </r>
       <r>   20.3361    0.0000 </r>
      </set>
      <set comment="kpoint 35">
       <r>   -6.0093    1.0000 </r>
       <r>   -4.1516    1.0000 </r>
       <r>    0.7479    1.0000 </r>
       <r>    0.7479    1.0000 </r>
       <r>    4.3042    0.0000 </r>
       <r>    4.8121    0.0000 </r>
       <r>   12.6378    0.0000 </r>
       <r>   12.6378    0.0000 </r>
       <r>   14.0867    0.0000 </r>
       <r>   16.0803    0.0000 </r>
       <r>   16.0835    0.0000 </r>
       <r>   16.7642    0.0000 </r>
       <r>   16.7642    0.0000 </r>
       <r>   18.1999    0.0000 </r>
       <r>   20.6840    0.0000 </r>
       <r>   20.6840    0.0000 </r>
      </set>
[...]
       </set>
       <set comment="band 12">
        <r>  0.0077  0.0383  0.0144  0.0144  0.0936  0.0936  0.0003  0.0025  0.0008 </r>
        <r>  0.0077  0.0383  0.0144  0.0144  0.0936  0.0936  0.0003  0.0025  0.0008 </r>
       </set>
       <set comment="band 13">
        <r>  0.0000  0.0000  0.0025  0.0025  0.0001  0.0001  0.1505  0.0000  0.0502 </r>
        <r>  0.0000  0.0000  0.0025  0.0025  0.0001  0.0001  0.1505  0.0000  0.0502 </r>
       </set>
       <set comment="band 14">
        <r>  0.0000  0.0000  0.0019  0.0019  0.0213  0.0213  0.1282  0.0000  0.0427 </r>
        <r>  0.0000  0.0000  0.0019  0.0019  0.0213  0.0213  0.1282  0.0000  0.0427 </r>
       </set>
       <set comment="band 15">
        <r>  0.0057  0.0121  0.0089  0.0089  0.0367  0.0366  0.0071  0.0002  0.0214 </r>
        <r>  0.0057  0.0121  0.0089  0.0089  0.0367  0.0366  0.0071  0.0002  0.0215 </r>
       </set>
       <set comment="band 16">
        <r>  0.0020  0.0034  0.0057  0.0057  0.0160  0.0159  0.0195  0.0094  0.0587 </r>
        <r>  0.0020  0.0034  0.0056  0.0057  0.0160  0.0159  0.0195  0.0094  0.0586 </r>
       </set>
      </set>
      <set comment="kpoint 396">
       <set comment="band 1">
        <r>  0.2855  0.0523  0.0001  0.0001  0.0000  0.0000  0.0001  0.0042  0.0004 </r>
        <r>  0.2855  0.0523  0.0001  0.0001  0.0000  0.0000  0.0001  0.0042  0.0004 </r>
       </set>
       <set comment="band 2">
        <r>  0.2851  0.0526  0.0001  0.0001  0.0000  0.0000  0.0001  0.0042  0.0004 </r>
        <r>  0.2851  0.0526  0.0001  0.0001  0.0000  0.0000  0.0001  0.0042  0.0004 </r>
       </set>
       <set comment="band 3">
        <r>  0.0003  0.0015  0.1365  0.1365  0.0014  0.0014  0.0000  0.0000  0.0001 </r>
        <r>  0.0003  0.0015  0.1365  0.1365  0.0014  0.0014  0.0000  0.0000  0.0001 </r>
       </set>
       <set comment="band 4">
        <r>  0.0000  0.0000  0.1384  0.1384  0.0014  0.0014  0.0000  0.0000  0.0000 </r>
        <r>  0.0000  0.0000  0.1384  0.1384  0.0014  0.0014  0.0000  0.0000  0.0000 </r>
       </set>
       <set comment="band 5">
        <r>  0.0601  0.0728  0.0000  0.0000  0.0000  0.0000  0.0054  0.0235  0.0163 </r>
        <r>  0.0601  0.0728  0.0000  0.0000  0.0000  0.0000  0.0054  0.0235  0.0163 </r>
       </set>
       <set comment="band 6">
        <r>  0.0595  0.0716  0.0018  0.0018  0.0000  0.0000  0.0054  0.0235  0.0162 </r>
        <r>  0.0595  0.0716  0.0018  0.0018  0.0000  0.0000  0.0054  0.0235  0.0162 </r>
       </set>
       <set comment="band 7">
        <r>  0.0023  0.0042  0.1506  0.1506  0.0194  0.0194  0.0001  0.0003  0.0002 </r>
        <r>  0.0023  0.0042  0.1506  0.1506  0.0194  0.0194  0.0001  0.0003  0.0002 </r>
       </set>
       <set comment="band 8">
        <r>  0.0000  0.0000  0.1531  0.1531  0.0200  0.0200  0.0010  0.0000  0.0003 </r>
        <r>  0.0000  0.0000  0.1531  0.1531  0.0200  0.0200  0.0010  0.0000  0.0003 </r>
       </set>
       <set comment="band 9">
        <r>  0.0424  0.1955  0.0017  0.0017  0.0146  0.0146  0.0008  0.0149  0.0025 </r>
        <r>  0.0424  0.1955  0.0017  0.0017  0.0146  0.0146  0.0008  0.0149  0.0025 </r>
       </set>
       <set comment="band 10">
        <r>  0.0461  0.2208  0.0040  0.0040  0.0006  0.0006  0.0010  0.0164  0.0029 </r>
        <r>  0.0461  0.2208  0.0040  0.0040  0.0006  0.0006  0.0010  0.0164  0.0029 </r>
       </set>
       <set comment="band 11">
        <r>  0.0000  0.0000  0.0148  0.0148  0.0978  0.0978  0.0176  0.0000  0.0059 </r>
        <r>  0.0000  0.0000  0.0148  0.0148  0.0978  0.0978  0.0176  0.0000  0.0059 </r>
       </set>
       <set comment="band 12">
        <r>  0.0060  0.0295  0.0148  0.0148  0.0981  0.0981  0.0002  0.0019  0.0006 </r>
        <r>  0.0060  0.0295  0.0148  0.0148  0.0981  0.0981  0.0002  0.0019  0.0006 </r>
       </set>
       <set comment="band 13">
        <r>  0.0000  0.0000  0.0016  0.0016  0.0001  0.0001  0.1510  0.0000  0.0503 </r>
        <r>  0.0000  0.0000  0.0016  0.0016  0.0001  0.0001  0.1510  0.0000  0.0503 </r>
       </set>
       <set comment="band 14">
        <r>  0.0000  0.0000  0.0014  0.0014  0.0159  0.0159  0.1341  0.0000  0.0447 </r>
        <r>  0.0000  0.0000  0.0014  0.0014  0.0159  0.0159  0.1341  0.0000  0.0447 </r>
       </set>
       <set comment="band 15">
        <r>  0.0048  0.0120  0.0091  0.0090  0.0364  0.0362  0.0078  0.0004  0.0235 </r>
        <r>  0.0048  0.0120  0.0090  0.0091  0.0362  0.0365  0.0079  0.0004  0.0236 </r>
       </set>
       <set comment="band 16">
        <r>  0.0012  0.0040  0.0057  0.0058  0.0160  0.0158  0.0188  0.0084  0.0565 </r>
        <r>  0.0012  0.0040  0.0057  0.0058  0.0161  0.0157  0.0189  0.0083  0.0567 </r>
       </set>
      </set>
      <set comment="kpoint 397">
       <set comment="band 1">
        <r>  0.2854  0.0524  0.0000  0.0000  0.0000  0.0000  0.0001  0.0042  0.0004 </r>
        <r>  0.2854  0.0524  0.0000  0.0000  0.0000  0.0000  0.0001  0.0042  0.0004 </r>
       </set>
       <set comment="band 2">
        <r>  0.2851  0.0526  0.0000  0.0000  0.0000  0.0000  0.0001  0.0042  0.0004 </r>
        <r>  0.2851  0.0526  0.0000  0.0000  0.0000  0.0000  0.0001  0.0042  0.0004 </r>
       </set>
       <set comment="band 3">
        <r>  0.0001  0.0009  0.1373  0.1373  0.0014  0.0014  0.0000  0.0000  0.0001 </r>
        <r>  0.0001  0.0009  0.1373  0.1373  0.0014  0.0014  0.0000  0.0000  0.0001 </r>
       </set>
       <set comment="band 4">
        <r>  0.0000  0.0000  0.1384  0.1384  0.0014  0.0014  0.0000  0.0000  0.0000 </r>
        <r>  0.0000  0.0000  0.1384  0.1384  0.0014  0.0014  0.0000  0.0000  0.0000 </r>
       </set>
       <set comment="band 5">
        <r>  0.0601  0.0727  0.0000  0.0000  0.0000  0.0000  0.0054  0.0235  0.0163 </r>
        <r>  0.0601  0.0727  0.0000  0.0000  0.0000  0.0000  0.0054  0.0235  0.0163 </r>
       </set>
       <set comment="band 6">
        <r>  0.0597  0.0720  0.0010  0.0010  0.0000  0.0000  0.0054  0.0235  0.0163 </r>
        <r>  0.0597  0.0720  0.0010  0.0010  0.0000  0.0000  0.0054  0.0235  0.0163 </r>
       </set>
       <set comment="band 7">
        <r>  0.0013  0.0025  0.1523  0.1523  0.0197  0.0197  0.0000  0.0002  0.0001 </r>
        <r>  0.0013  0.0025  0.1523  0.1523  0.0197  0.0197  0.0000  0.0002  0.0001 </r>
       </set>
       <set comment="band 8">
        <r>  0.0000  0.0000  0.1538  0.1538  0.0200  0.0200  0.0006  0.0000  0.0002 </r>
        <r>  0.0000  0.0000  0.1538  0.1538  0.0200  0.0200  0.0006  0.0000  0.0002 </r>
       </set>
       <set comment="band 9">
        <r>  0.0444  0.2051  0.0011  0.0011  0.0099  0.0099  0.0009  0.0155  0.0027 </r>
        <r>  0.0444  0.2051  0.0011  0.0011  0.0099  0.0099  0.0009  0.0155  0.0027 </r>
       </set>
       <set comment="band 10">
        <r>  0.0471  0.2225  0.0023  0.0023  0.0004  0.0004  0.0010  0.0166  0.0029 </r>
        <r>  0.0471  0.2225  0.0023  0.0023  0.0004  0.0004  0.0010  0.0166  0.0029 </r>
       </set>
       <set comment="band 11">
        <r>  0.0000  0.0000  0.0153  0.0153  0.1031  0.1031  0.0116  0.0000  0.0039 </r>
        <r>  0.0000  0.0000  0.0153  0.0153  0.1031  0.1031  0.0116  0.0000  0.0039 </r>
       </set>
       <set comment="band 12">
        <r>  0.0041  0.0199  0.0153  0.0153  0.1030  0.1030  0.0001  0.0013  0.0004 </r>
        <r>  0.0041  0.0199  0.0153  0.0153  0.1030  0.1030  0.0001  0.0013  0.0004 </r>
       </set>
       <set comment="band 13">
        <r>  0.0000  0.0000  0.0009  0.0009  0.0000  0.0000  0.1514  0.0000  0.0505 </r>
        <r>  0.0000  0.0000  0.0009  0.0009  0.0000  0.0000  0.1514  0.0000  0.0505 </r>
       </set>
       <set comment="band 14">
        <r>  0.0000  0.0000  0.0010  0.0010  0.0103  0.0103  0.1403  0.0000  0.0468 </r>
        <r>  0.0000  0.0000  0.0010  0.0010  0.0103  0.0103  0.1403  0.0000  0.0468 </r>
       </set>
       <set comment="band 15">
        <r>  0.0038  0.0118  0.0091  0.0091  0.0363  0.0352  0.0088  0.0006  0.0265 </r>
        <r>  0.0039  0.0117  0.0090  0.0093  0.0355  0.0359  0.0089  0.0006  0.0267 </r>
       </set>
       <set comment="band 16">
        <r>  0.0006  0.0047  0.0057  0.0060  0.0164  0.0152  0.0180  0.0071  0.0542 </r>
        <r>  0.0006  0.0048  0.0056  0.0060  0.0165  0.0155  0.0178  0.0071  0.0536 </r>
       </set>
      </set>
      <set comment="kpoint 398">
       <set comment="band 1">
        <r>  0.2853  0.0525  0.0000  0.0000  0.0000  0.0000  0.0001  0.0042  0.0004 </r>
        <r>  0.2853  0.0525  0.0000  0.0000  0.0000  0.0000  0.0001  0.0042  0.0004 </r>
       </set>
       <set comment="band 2">
        <r>  0.2851  0.0526  0.0000  0.0000  0.0000  0.0000  0.0001  0.0042  0.0004 </r>
        <r>  0.2851  0.0526  0.0000  0.0000  0.0000  0.0000  0.0001  0.0042  0.0004 </r>
       </set>
       <set comment="band 3">
        <r>  0.0001  0.0004  0.1378  0.1378  0.0014  0.0014  0.0000  0.0000  0.0000 </r>
        <r>  0.0001  0.0004  0.1378  0.1378  0.0014  0.0014  0.0000  0.0000  0.0000 </r>
       </set>
       <set comment="band 4">
        <r>  0.0000  0.0000  0.1382  0.1382  0.0014  0.0014  0.0000  0.0000  0.0000 </r>
        <r>  0.0000  0.0000  0.1382  0.1382  0.0014  0.0014  0.0000  0.0000  0.0000 </r>
       </set>
       <set comment="band 5">
        <r>  0.0600  0.0727  0.0000  0.0000  0.0000  0.0000  0.0054  0.0235  0.0163 </r>
        <r>  0.0600  0.0727  0.0000  0.0000  0.0000  0.0000  0.0054  0.0235  0.0163 </r>
       </set>
       <set comment="band 6">
        <r>  0.0599  0.0724  0.0005  0.0005  0.0000  0.0000  0.0054  0.0235  0.0163 </r>
        <r>  0.0599  0.0724  0.0005  0.0005  0.0000  0.0000  0.0054  0.0235  0.0163 </r>
       </set>
       <set comment="band 7">
        <r>  0.0006  0.0011  0.1534  0.1534  0.0199  0.0199  0.0000  0.0001  0.0001 </r>
        <r>  0.0006  0.0011  0.1534  0.1534  0.0199  0.0199  0.0000  0.0001  0.0001 </r>
       </set>
       <set comment="band 8">
        <r>  0.0000  0.0000  0.1541  0.1541  0.0201  0.0201  0.0002  0.0000  0.0001 </r>
        <r>  0.0000  0.0000  0.1541  0.1541  0.0201  0.0201  0.0002  0.0000  0.0001 </r>
       </set>
       <set comment="band 9">
        <r>  0.0463  0.2145  0.0006  0.0006  0.0051  0.0051  0.0009  0.0161  0.0028 </r>
        <r>  0.0463  0.2145  0.0006  0.0006  0.0051  0.0051  0.0009  0.0161  0.0028 </r>
       </set>
       <set comment="band 10">
        <r>  0.0478  0.2237  0.0010  0.0010  0.0002  0.0002  0.0010  0.0167  0.0030 </r>
        <r>  0.0478  0.2237  0.0010  0.0010  0.0002  0.0002  0.0010  0.0167  0.0030 </r>
       </set>
       <set comment="band 11">
        <r>  0.0000  0.0000  0.0157  0.0157  0.1081  0.1081  0.0058  0.0000  0.0019 </r>
        <r>  0.0000  0.0000  0.0157  0.0157  0.1081  0.1081  0.0058  0.0000  0.0019 </r>
       </set>
       <set comment="band 12">
        <r>  0.0021  0.0103  0.0157  0.0157  0.1079  0.1079  0.0001  0.0007  0.0002 </r>
        <r>  0.0021  0.0103  0.0157  0.0157  0.1079  0.1079  0.0001  0.0007  0.0002 </r>
       </set>
       <set comment="band 13">
        <r>  0.0000  0.0000  0.0004  0.0004  0.0000  0.0000  0.1520  0.0000  0.0507 </r>
        <r>  0.0000  0.0000  0.0004  0.0004  0.0000  0.0000  0.1520  0.0000  0.0507 </r>
       </set>
       <set comment="band 14">
        <r>  0.0000  0.0000  0.0005  0.0005  0.0051  0.0051  0.1464  0.0000  0.0488 </r>
        <r>  0.0000  0.0000  0.0005  0.0005  0.0051  0.0051  0.1464  0.0000  0.0488 </r>
       </set>
       <set comment="band 15">
        <r>  0.0029  0.0113  0.0090  0.0094  0.0354  0.0350  0.0100  0.0010  0.0299 </r>
        <r>  0.0029  0.0114  0.0091  0.0093  0.0358  0.0347  0.0100  0.0011  0.0299 </r>
       </set>
       <set comment="band 16">
        <r>  0.0001  0.0058  0.0057  0.0059  0.0157  0.0160  0.0167  0.0058  0.0501 </r>
        <r>  0.0001  0.0058  0.0059  0.0058  0.0160  0.0154  0.0168  0.0057  0.0504 </r>
       </set>
      </set>
      <set comment="kpoint 399">
       <set comment="band 1">
        <r>  0.2852  0.0526  0.0000  0.0000  0.0000  0.0000  0.0001  0.0042  0.0004 </r>
        <r>  0.2852  0.0526  0.0000  0.0000  0.0000  0.0000  0.0001  0.0042  0.0004 </r>
       </set>
       <set comment="band 2">
        <r>  0.2852  0.0526  0.0000  0.0000  0.0000  0.0000  0.0001  0.0042  0.0004 </r>
        <r>  0.2852  0.0526  0.0000  0.0000  0.0000  0.0000  0.0001  0.0042  0.0004 </r>
       </set>
       <set comment="band 3">
        <r>  0.0000  0.0001  0.1381  0.1381  0.0014  0.0014  0.0000  0.0000  0.0000 </r>
        <r>  0.0000  0.0001  0.1381  0.1381  0.0014  0.0014  0.0000  0.0000  0.0000 </r>
       </set>
       <set comment="band 4">
        <r>  0.0000  0.0000  0.1382  0.1382  0.0014  0.0014  0.0000  0.0000  0.0000 </r>
        <r>  0.0000  0.0000  0.1382  0.1382  0.0014  0.0014  0.0000  0.0000  0.0000 </r>
       </set>
       <set comment="band 5">
        <r>  0.0600  0.0727  0.0000  0.0000  0.0000  0.0000  0.0054  0.0235  0.0163 </r>
        <r>  0.0600  0.0727  0.0000  0.0000  0.0000  0.0000  0.0054  0.0235  0.0163 </r>
       </set>
       <set comment="band 6">
        <r>  0.0600  0.0726  0.0001  0.0001  0.0000  0.0000  0.0054  0.0235  0.0163 </r>
        <r>  0.0600  0.0726  0.0001  0.0001  0.0000  0.0000  0.0054  0.0235  0.0163 </r>
       </set>
       <set comment="band 7">
        <r>  0.0002  0.0003  0.1542  0.1542  0.0200  0.0200  0.0000  0.0000  0.0000 </r>
        <r>  0.0002  0.0003  0.1542  0.1542  0.0200  0.0200  0.0000  0.0000  0.0000 </r>
       </set>
       <set comment="band 8">
        <r>  0.0000  0.0000  0.1544  0.1544  0.0201  0.0201  0.0001  0.0000  0.0000 </r>
        <r>  0.0000  0.0000  0.1544  0.1544  0.0201  0.0201  0.0001  0.0000  0.0000 </r>
       </set>
       <set comment="band 9">
        <r>  0.0478  0.2219  0.0002  0.0002  0.0014  0.0014  0.0010  0.0166  0.0030 </r>
        <r>  0.0478  0.2219  0.0002  0.0002  0.0014  0.0014  0.0010  0.0166  0.0030 </r>
       </set>
       <set comment="band 10">
        <r>  0.0483  0.2245  0.0003  0.0003  0.0000  0.0000  0.0010  0.0167  0.0030 </r>
        <r>  0.0483  0.2245  0.0003  0.0003  0.0000  0.0000  0.0010  0.0167  0.0030 </r>
       </set>
       <set comment="band 11">
        <r>  0.0000  0.0000  0.0161  0.0161  0.1118  0.1118  0.0016  0.0000  0.0005 </r>
        <r>  0.0000  0.0000  0.0161  0.0161  0.1118  0.1118  0.0016  0.0000  0.0005 </r>
       </set>
       <set comment="band 12">
        <r>  0.0006  0.0029  0.0161  0.0161  0.1117  0.1117  0.0000  0.0002  0.0001 </r>
        <r>  0.0006  0.0029  0.0161  0.0161  0.1117  0.1117  0.0000  0.0002  0.0001 </r>
       </set>
       <set comment="band 13">
        <r>  0.0000  0.0000  0.0001  0.0001  0.0000  0.0000  0.1522  0.0000  0.0507 </r>
        <r>  0.0000  0.0000  0.0001  0.0001  0.0000  0.0000  0.1522  0.0000  0.0507 </r>
       </set>
       <set comment="band 14">
        <r>  0.0000  0.0000  0.0001  0.0001  0.0014  0.0014  0.1507  0.0000  0.0502 </r>
        <r>  0.0000  0.0000  0.0001  0.0001  0.0014  0.0014  0.1507  0.0000  0.0502 </r>
       </set>
       <set comment="band 15">
        <r>  0.0017  0.0104  0.0101  0.0081  0.0371  0.0336  0.0121  0.0016  0.0363 </r>
        <r>  0.0018  0.0107  0.0090  0.0098  0.0307  0.0377  0.0115  0.0018  0.0339 </r>
       </set>
       <set comment="band 16">
        <r>  0.0001  0.0074  0.0062  0.0056  0.0157  0.0149  0.0144  0.0041  0.0435 </r>
        <r>  0.0001  0.0071  0.0055  0.0058  0.0153  0.0170  0.0154  0.0039  0.0461 </r>
       </set>
      </set>
      <set comment="kpoint 400">
       <set comment="band 1">
        <r>  0.2839  0.0528  0.0000  0.0000  0.0000  0.0000  0.0001  0.0042  0.0004 </r>
        <r>  0.2865  0.0524  0.0000  0.0000  0.0000  0.0000  0.0001  0.0042  0.0004 </r>
       </set>
       <set comment="band 2">
        <r>  0.2865  0.0524  0.0000  0.0000  0.0000  0.0000  0.0001  0.0042  0.0004 </r>
        <r>  0.2839  0.0528  0.0000  0.0000  0.0000  0.0000  0.0001  0.0042  0.0004 </r>
       </set>
       <set comment="band 3">
        <r>  0.0000  0.0000  0.1382  0.1382  0.0014  0.0014  0.0000  0.0000  0.0000 </r>
        <r>  0.0000  0.0000  0.1382  0.1382  0.0014  0.0014  0.0000  0.0000  0.0000 </r>
       </set>
       <set comment="band 4">
        <r>  0.0000  0.0000  0.1382  0.1382  0.0014  0.0014  0.0000  0.0000  0.0000 </r>
        <r>  0.0000  0.0000  0.1382  0.1382  0.0014  0.0014  0.0000  0.0000  0.0000 </r>
       </set>
       <set comment="band 5">
        <r>  0.0600  0.0727  0.0000  0.0000  0.0000  0.0000  0.0054  0.0235  0.0163 </r>
        <r>  0.0600  0.0727  0.0000  0.0000  0.0000  0.0000  0.0055  0.0235  0.0164 </r>
       </set>
       <set comment="band 6">
        <r>  0.0600  0.0727  0.0000  0.0000  0.0000  0.0000  0.0055  0.0235  0.0164 </r>
        <r>  0.0600  0.0727  0.0000  0.0000  0.0000  0.0000  0.0054  0.0235  0.0163 </r>
       </set>
       <set comment="band 7">
        <r>  0.0000  0.0000  0.1545  0.1545  0.0201  0.0201  0.0000  0.0000  0.0000 </r>
        <r>  0.0000  0.0000  0.1545  0.1545  0.0201  0.0201  0.0000  0.0000  0.0000 </r>
       </set>
       <set comment="band 8">
        <r>  0.0000  0.0000  0.1545  0.1545  0.0201  0.0201  0.0000  0.0000  0.0000 </r>
        <r>  0.0000  0.0000  0.1545  0.1545  0.0201  0.0201  0.0000  0.0000  0.0000 </r>
       </set>
       <set comment="band 9">
        <r>  0.0483  0.2252  0.0000  0.0000  0.0000  0.0000  0.0010  0.0168  0.0030 </r>
        <r>  0.0485  0.2244  0.0000  0.0000  0.0000  0.0000  0.0010  0.0167  0.0030 </r>
       </set>
       <set comment="band 10">
        <r>  0.0485  0.2244  0.0000  0.0000  0.0000  0.0000  0.0010  0.0167  0.0030 </r>
        <r>  0.0483  0.2252  0.0000  0.0000  0.0000  0.0000  0.0010  0.0168  0.0030 </r>
       </set>
       <set comment="band 11">
        <r>  0.0000  0.0000  0.0162  0.0162  0.1131  0.1131  0.0000  0.0000  0.0000 </r>
        <r>  0.0000  0.0000  0.0162  0.0162  0.1131  0.1131  0.0000  0.0000  0.0000 </r>
       </set>
       <set comment="band 12">
        <r>  0.0000  0.0000  0.0162  0.0162  0.1131  0.1131  0.0000  0.0000  0.0000 </r>
        <r>  0.0000  0.0000  0.0162  0.0162  0.1131  0.1131  0.0000  0.0000  0.0000 </r>
       </set>
       <set comment="band 13">
        <r>  0.0000  0.0000  0.0000  0.0000  0.0000  0.0000  0.1523  0.0000  0.0508 </r>
        <r>  0.0000  0.0000  0.0000  0.0000  0.0000  0.0000  0.1523  0.0000  0.0508 </r>
       </set>
       <set comment="band 14">
        <r>  0.0000  0.0000  0.0000  0.0000  0.0000  0.0000  0.1523  0.0000  0.0508 </r>
        <r>  0.0000  0.0000  0.0000  0.0000  0.0000  0.0000  0.1523  0.0000  0.0508 </r>
       </set>
       <set comment="band 15">
        <r>  0.0000  0.0079  0.0114  0.0036  0.0411  0.0163  0.0001  0.0021  0.0004 </r>
        <r>  0.0007  0.0001  0.0054  0.0145  0.0105  0.0314  0.0111  0.0000  0.0331 </r>
       </set>
       <set comment="band 16">
        <r>  0.0003  0.0036  0.0094  0.0082  0.0389  0.0704  0.0056  0.0010  0.0168 </r>
        <r>  0.0003  0.0038  0.0210  0.0110  0.0290  0.0334  0.0051  0.0012  0.0153 </r>
       </set>
      </set>
     </set>
    </set>
   </array>
  </projected>
 </calculation>
 <structure name="finalpos" >
  <crystal>
   <varray name="basis" >
    <v>       0.00000000       2.83770000       2.83770000 </v>
    <v>       2.83770000       0.00000000       2.83770000 </v>
    <v>       2.83770000       2.83770000       0.00000000 </v>
   </varray>
   <i name="volume">     45.70139284 </i>
   <varray name="rec_basis" >
    <v>      -0.17619903       0.17619903       0.17619903 </v>
    <v>       0.17619903      -0.17619903       0.17619903 </v>
    <v>       0.17619903       0.17619903      -0.17619903 </v>
   </varray>
  </crystal>
  <varray name="positions" >
   <v>       0.75000000       0.75000000       0.75000000 </v>
   <v>       0.50000000       0.50000000       0.50000000 </v>
  </varray>
 </structure>
</modeling>
