fcc Si                                  
           1
     0.000000    2.837700    2.837700
     2.837700    0.000000    2.837700
     2.837700    2.837700    0.000000
   Ge
     2
Direct configuration=     1
   0.75000000  0.75000000  0.75000000
   0.50000000  0.50000000  0.50000000
