Ge structure

 64 atoms
 1 atom types
 0.00 11.5742 xlo xhi
 0.00 11.5742 ylo yhi
 0.00 11.5742 zlo zhi

 Masses

1 72.64

 Atoms

1 10.0 0.0 0.0 
2 10.0 2.89355 2.89355 
3 12.89355 0.0 2.89355 
4 12.89355 2.89355 0.0 
5 11.446775 1.446775 1.446775 
6 14.340325 4.340325 1.446775 
7 14.340325 1.446775 4.340325 
8 11.446775 4.340325 4.340325 
9 10.0 0.0 5.7871 
10 10.0 2.89355 8.68065 
11 12.89355 0.0 8.68065 
12 12.89355 2.89355 5.7871 
13 11.446775 1.446775 7.233874999999999 
14 14.340325 4.340325 7.233874999999999 
15 14.340325 1.446775 10.127424999999999 
16 11.446775 4.340325 10.127424999999999 
17 10.0 5.7871 0.0 
18 10.0 8.68065 2.89355 
19 12.89355 5.7871 2.89355 
20 12.89355 8.68065 0.0 
21 11.446775 7.233874999999999 1.446775 
22 14.340325 10.127424999999999 1.446775 
23 14.340325 7.233874999999999 4.340325 
24 11.446775 10.127424999999999 4.340325 
25 10.0 5.7871 5.7871 
26 10.0 8.68065 8.68065 
27 12.89355 5.7871 8.68065 
28 12.89355 8.68065 5.7871 
29 11.446775 7.233874999999999 7.233874999999999 
30 14.340325 10.127424999999999 7.233874999999999 
31 14.340325 7.233874999999999 10.127424999999999 
32 11.446775 10.127424999999999 10.127424999999999 
33 15.7871 0.0 0.0 
34 15.7871 2.89355 2.89355 
35 18.68065 0.0 2.89355 
36 18.68065 2.89355 0.0 
37 17.233874999999999 1.446775 1.446775 
38 110.127424999999999 4.340325 1.446775 
39 110.127424999999999 1.446775 4.340325 
40 17.233874999999999 4.340325 4.340325 
41 15.7871 0.0 5.7871 
42 15.7871 2.89355 8.68065 
43 18.68065 0.0 8.68065 
44 18.68065 2.89355 5.7871 
45 17.233874999999999 1.446775 7.233874999999999 
46 110.127424999999999 4.340325 7.233874999999999 
47 110.127424999999999 1.446775 10.127424999999999 
48 17.233874999999999 4.340325 10.127424999999999 
49 15.7871 5.7871 0.0 
50 15.7871 8.68065 2.89355 
51 18.68065 5.7871 2.89355 
52 18.68065 8.68065 0.0 
53 17.233874999999999 7.233874999999999 1.446775 
54 110.127424999999999 10.127424999999999 1.446775 
55 110.127424999999999 7.233874999999999 4.340325 
56 17.233874999999999 10.127424999999999 4.340325 
57 15.7871 5.7871 5.7871 
58 15.7871 8.68065 8.68065 
59 18.68065 5.7871 8.68065 
60 18.68065 8.68065 5.7871 
61 17.233874999999999 7.233874999999999 7.233874999999999 
62 110.127424999999999 10.127424999999999 7.233874999999999 
63 110.127424999999999 7.233874999999999 10.127424999999999 
64 17.233874999999999 10.127424999999999 10.127424999999999 
