Ge structure

 64 atoms
 1 atom types
 0.00 11.5742 xlo xhi
 0.00 11.5742 ylo yhi
 0.00 11.5742 zlo zhi

 Masses

1 72.64

 Atoms

1 1 0.0 0.0 0.0 
2 1 0.0 2.89355 2.89355 
3 1 2.89355 0.0 2.89355 
4 1 2.89355 2.89355 0.0 
5 1 1.446775 1.446775 1.446775 
6 1 4.340325 4.340325 1.446775 
7 1 4.340325 1.446775 4.340325 
8 1 1.446775 4.340325 4.340325 
9 1 0.0 0.0 5.7871 
10 1 0.0 2.89355 8.68065 
11 1 2.89355 0.0 8.68065 
12 1 2.89355 2.89355 5.7871 
13 1 1.446775 1.446775 7.233874999999999 
14 1 4.340325 4.340325 7.233874999999999 
15 1 4.340325 1.446775 10.127424999999999 
16 1 1.446775 4.340325 10.127424999999999 
17 1 0.0 5.7871 0.0 
18 1 0.0 8.68065 2.89355 
19 1 2.89355 5.7871 2.89355 
20 1 2.89355 8.68065 0.0 
21 1 1.446775 7.233874999999999 1.446775 
22 1 4.340325 10.127424999999999 1.446775 
23 1 4.340325 7.233874999999999 4.340325 
24 1 1.446775 10.127424999999999 4.340325 
25 1 0.0 5.7871 5.7871 
26 1 0.0 8.68065 8.68065 
27 1 2.89355 5.7871 8.68065 
28 1 2.89355 8.68065 5.7871 
29 1 1.446775 7.233874999999999 7.233874999999999 
30 1 4.340325 10.127424999999999 7.233874999999999 
31 1 4.340325 7.233874999999999 10.127424999999999 
32 1 1.446775 10.127424999999999 10.127424999999999 
33 1 5.7871 0.0 0.0 
34 1 5.7871 2.89355 2.89355 
35 1 8.68065 0.0 2.89355 
36 1 8.68065 2.89355 0.0 
37 1 7.233874999999999 1.446775 1.446775 
38 1 10.127424999999999 4.340325 1.446775 
39 1 10.127424999999999 1.446775 4.340325 
40 1 7.233874999999999 4.340325 4.340325 
41 1 5.7871 0.0 5.7871 
42 1 5.7871 2.89355 8.68065 
43 1 8.68065 0.0 8.68065 
44 1 8.68065 2.89355 5.7871 
45 1 7.233874999999999 1.446775 7.233874999999999 
46 1 10.127424999999999 4.340325 7.233874999999999 
47 1 10.127424999999999 1.446775 10.127424999999999 
48 1 7.233874999999999 4.340325 10.127424999999999 
49 1 5.7871 5.7871 0.0 
50 1 5.7871 8.68065 2.89355 
51 1 8.68065 5.7871 2.89355 
52 1 8.68065 8.68065 0.0 
53 1 7.233874999999999 7.233874999999999 1.446775 
54 1 10.127424999999999 10.127424999999999 1.446775 
55 1 10.127424999999999 7.233874999999999 4.340325 
56 1 7.233874999999999 10.127424999999999 4.340325 
57 1 5.7871 5.7871 5.7871 
58 1 5.7871 8.68065 8.68065 
59 1 8.68065 5.7871 8.68065 
60 1 8.68065 8.68065 5.7871 
61 1 7.233874999999999 7.233874999999999 7.233874999999999 
62 1 10.127424999999999 10.127424999999999 7.233874999999999 
63 1 10.127424999999999 7.233874999999999 10.127424999999999 
64 1 7.233874999999999 10.127424999999999 10.127424999999999 
