  64  64   0   0
  0.2285070E+02  0.1135080E-08  0.1135080E-08  0.1135080E-08  0.1000000E-14
   300.000000000000     
  CAR 
 unknown system                          
      8.32205178     -9.90671600  301      3.46662941      1.00000000
     -9.907  0.0000E+00  0.0000E+00
     -9.846  0.0000E+00  0.0000E+00
     -9.785  0.0000E+00  0.0000E+00
     -9.724  0.0000E+00  0.0000E+00
     -9.664  0.0000E+00  0.0000E+00
     -9.603  0.0000E+00  0.0000E+00
     -9.542  0.0000E+00  0.0000E+00
     -9.481  0.0000E+00  0.0000E+00
     -9.421  0.0000E+00  0.0000E+00
     -9.360  0.1581E-14  0.9701E-16
     -9.299  0.5197E-09  0.3192E-10
     -9.238  0.9150E-05  0.5625E-06
     -9.178  0.8933E-02  0.5501E-03
     -9.117  0.5354E+00  0.3350E-01
     -9.056  0.2448E+01  0.1842E+00
     -8.995  0.1045E+01  0.2485E+00
     -8.935  0.8007E+00  0.2976E+00
     -8.874  0.5467E+01  0.6334E+00
     -8.813  0.8554E+01  0.1161E+01
     -8.752  0.7747E+01  0.1638E+01
     -8.691  0.7052E+01  0.2070E+01
     -8.631  0.8500E+01  0.2594E+01
     -8.570  0.1513E+02  0.3527E+01
     -8.509  0.1421E+02  0.4401E+01
     -8.448  0.9307E+01  0.4972E+01
     -8.388  0.7804E+01  0.5453E+01
     -8.327  0.8708E+01  0.5990E+01
     -8.266  0.6114E+01  0.6366E+01
     -8.205  0.5086E+01  0.6679E+01
     -8.145  0.6590E+01  0.7084E+01
     -8.084  0.9879E+01  0.7692E+01
     -8.023  0.1112E+02  0.8376E+01
     -7.962  0.1392E+02  0.9231E+01
     -7.902  0.2300E+02  0.1065E+02
     -7.841  0.3241E+02  0.1264E+02
     -7.780  0.2699E+02  0.1430E+02
     -7.719  0.2745E+02  0.1599E+02
     -7.659  0.2922E+02  0.1779E+02
     -7.598  0.1945E+02  0.1899E+02
     -7.537  0.1347E+02  0.1982E+02
     -7.476  0.6410E+01  0.2021E+02
     -7.415  0.2548E+01  0.2037E+02
     -7.355  0.6916E+01  0.2079E+02
     -7.294  0.1371E+02  0.2164E+02
     -7.233  0.2144E+02  0.2296E+02
     -7.172  0.3126E+02  0.2488E+02
     -7.112  0.3548E+02  0.2707E+02
     -7.051  0.2764E+02  0.2877E+02
     -6.990  0.1462E+02  0.2967E+02
     -6.929  0.1332E+02  0.3049E+02
     -6.869  0.2426E+02  0.3198E+02
     -6.808  0.3276E+02  0.3399E+02
     -6.747  0.3682E+02  0.3626E+02
     -6.686  0.3912E+02  0.3867E+02
     -6.626  0.3971E+02  0.4112E+02
     -6.565  0.4297E+02  0.4376E+02
     -6.504  0.4027E+02  0.4624E+02
     -6.443  0.3061E+02  0.4812E+02
     -6.382  0.2719E+02  0.4979E+02
     -6.322  0.2963E+02  0.5162E+02
     -6.261  0.3056E+02  0.5350E+02
     -6.200  0.2250E+02  0.5488E+02
     -6.139  0.1172E+02  0.5560E+02
     -6.079  0.2331E+01  0.5574E+02
     -6.018  0.8945E-01  0.5575E+02
     -5.957  0.7046E-03  0.5575E+02
     -5.896  0.8522E-01  0.5576E+02
     -5.836  0.2478E+01  0.5591E+02
     -5.775  0.1367E+02  0.5675E+02
     -5.714  0.1877E+02  0.5791E+02
     -5.653  0.1027E+02  0.5854E+02
     -5.593  0.3200E+01  0.5873E+02
     -5.532  0.3123E+00  0.5875E+02
     -5.471  0.1199E+01  0.5883E+02
     -5.410  0.6302E+01  0.5921E+02
     -5.350  0.1580E+02  0.6018E+02
     -5.289  0.3121E+02  0.6211E+02
     -5.228  0.4108E+02  0.6464E+02
     -5.167  0.3255E+02  0.6664E+02
     -5.106  0.2152E+02  0.6797E+02
     -5.046  0.1320E+02  0.6878E+02
     -4.985  0.6202E+01  0.6916E+02
     -4.924  0.1446E+01  0.6925E+02
     -4.863  0.3232E+00  0.6927E+02
     -4.803  0.2849E+01  0.6944E+02
     -4.742  0.1346E+02  0.7027E+02
     -4.681  0.1969E+02  0.7148E+02
     -4.620  0.9457E+01  0.7206E+02
     -4.560  0.2651E+01  0.7223E+02
     -4.499  0.3749E+00  0.7225E+02
     -4.438  0.1068E-01  0.7225E+02
     -4.377  0.2679E-03  0.7225E+02
     -4.317  0.7296E-01  0.7225E+02
     -4.256  0.2286E+01  0.7240E+02
     -4.195  0.1470E+02  0.7330E+02
     -4.134  0.4223E+02  0.7590E+02
     -4.074  0.6121E+02  0.7967E+02
     -4.013  0.5378E+02  0.8298E+02
     -3.952  0.3815E+02  0.8533E+02
     -3.891  0.2575E+02  0.8691E+02
     -3.830  0.2105E+02  0.8821E+02
     -3.770  0.1604E+02  0.8919E+02
     -3.709  0.1741E+02  0.9026E+02
     -3.648  0.3429E+02  0.9238E+02
     -3.587  0.5889E+02  0.9601E+02
     -3.527  0.5330E+02  0.9929E+02
     -3.466  0.3918E+02  0.1017E+03
     -3.405  0.2228E+02  0.1031E+03
     -3.344  0.1391E+02  0.1039E+03
     -3.284  0.9875E+01  0.1045E+03
     -3.223  0.3458E+01  0.1047E+03
     -3.162  0.7991E+00  0.1048E+03
     -3.101  0.3972E+01  0.1050E+03
     -3.041  0.9736E+01  0.1056E+03
     -2.980  0.1223E+02  0.1064E+03
     -2.919  0.1072E+02  0.1070E+03
     -2.858  0.7448E+01  0.1075E+03
     -2.797  0.3213E+01  0.1077E+03
     -2.737  0.2386E+01  0.1078E+03
     -2.676  0.1143E+02  0.1085E+03
     -2.615  0.2496E+02  0.1101E+03
     -2.554  0.2568E+02  0.1117E+03
     -2.494  0.2063E+02  0.1129E+03
     -2.433  0.1062E+02  0.1136E+03
     -2.372  0.2483E+01  0.1137E+03
     -2.311  0.1724E+00  0.1137E+03
     -2.251  0.1563E-02  0.1137E+03
     -2.190  0.1136E-05  0.1138E+03
     -2.129  0.5034E-04  0.1138E+03
     -2.068  0.2263E-01  0.1138E+03
     -2.008  0.1165E+01  0.1138E+03
     -1.947  0.1054E+02  0.1145E+03
     -1.886  0.2746E+02  0.1162E+03
     -1.825  0.2948E+02  0.1180E+03
     -1.765  0.2024E+02  0.1192E+03
     -1.704  0.7593E+01  0.1197E+03
     -1.643  0.9747E+00  0.1197E+03
     -1.582  0.2350E-01  0.1197E+03
     -1.521  0.6353E-04  0.1198E+03
     -1.461  0.3353E-03  0.1198E+03
     -1.400  0.9204E-01  0.1198E+03
     -1.339  0.2542E+01  0.1199E+03
     -1.278  0.1287E+02  0.1207E+03
     -1.218  0.1880E+02  0.1219E+03
     -1.157  0.1436E+02  0.1227E+03
     -1.096  0.6807E+01  0.1232E+03
     -1.035  0.1314E+01  0.1232E+03
     -0.975  0.9695E-01  0.1233E+03
     -0.914  0.1083E+01  0.1233E+03
     -0.853  0.1158E+02  0.1240E+03
     -0.792  0.3332E+02  0.1261E+03
     -0.732  0.4394E+02  0.1288E+03
     -0.671  0.3516E+02  0.1310E+03
     -0.610  0.1708E+02  0.1320E+03
     -0.549  0.4318E+01  0.1323E+03
     -0.489  0.6171E+01  0.1326E+03
     -0.428  0.1707E+02  0.1337E+03
     -0.367  0.2424E+02  0.1352E+03
     -0.306  0.4185E+02  0.1378E+03
     -0.245  0.6883E+02  0.1420E+03
     -0.185  0.7037E+02  0.1464E+03
     -0.124  0.6156E+02  0.1501E+03
     -0.063  0.6514E+02  0.1542E+03
     -0.002  0.6461E+02  0.1581E+03
      0.058  0.5681E+02  0.1616E+03
      0.119  0.3917E+02  0.1640E+03
      0.180  0.1679E+02  0.1650E+03
      0.241  0.3174E+01  0.1652E+03
      0.301  0.4568E+00  0.1653E+03
      0.362  0.2682E+01  0.1654E+03
      0.423  0.6146E+01  0.1658E+03
      0.484  0.1182E+02  0.1665E+03
      0.544  0.3970E+02  0.1690E+03
      0.605  0.7708E+02  0.1738E+03
      0.666  0.8854E+02  0.1792E+03
      0.727  0.8101E+02  0.1842E+03
      0.787  0.6410E+02  0.1881E+03
      0.848  0.5306E+02  0.1914E+03
      0.909  0.4537E+02  0.1942E+03
      0.970  0.3905E+02  0.1966E+03
      1.031  0.3739E+02  0.1989E+03
      1.091  0.4628E+02  0.2017E+03
      1.152  0.5343E+02  0.2050E+03
      1.213  0.5330E+02  0.2083E+03
      1.274  0.4606E+02  0.2111E+03
      1.334  0.4010E+02  0.2136E+03
      1.395  0.3655E+02  0.2158E+03
      1.456  0.2621E+02  0.2175E+03
      1.517  0.1662E+02  0.2185E+03
      1.577  0.1005E+02  0.2191E+03
      1.638  0.1902E+02  0.2203E+03
      1.699  0.2999E+02  0.2221E+03
      1.760  0.4388E+02  0.2248E+03
      1.820  0.5726E+02  0.2284E+03
      1.881  0.6041E+02  0.2321E+03
      1.942  0.5789E+02  0.2356E+03
      2.003  0.4748E+02  0.2385E+03
      2.064  0.3740E+02  0.2408E+03
      2.124  0.2970E+02  0.2427E+03
      2.185  0.2009E+02  0.2439E+03
      2.246  0.1192E+02  0.2446E+03
      2.307  0.6513E+01  0.2450E+03
      2.367  0.3250E+01  0.2452E+03
      2.428  0.5593E+01  0.2456E+03
      2.489  0.1442E+02  0.2465E+03
      2.550  0.2146E+02  0.2478E+03
      2.610  0.2389E+02  0.2493E+03
      2.671  0.2166E+02  0.2506E+03
      2.732  0.1430E+02  0.2515E+03
      2.793  0.7516E+01  0.2519E+03
      2.853  0.3323E+01  0.2521E+03
      2.914  0.2103E+01  0.2523E+03
      2.975  0.5939E+01  0.2526E+03
      3.036  0.1146E+02  0.2533E+03
      3.096  0.1305E+02  0.2541E+03
      3.157  0.9043E+01  0.2547E+03
      3.218  0.5533E+01  0.2550E+03
      3.279  0.3622E+01  0.2553E+03
      3.340  0.4572E+01  0.2555E+03
      3.400  0.4168E+01  0.2558E+03
      3.461  0.4519E+01  0.2561E+03
      3.522  0.7714E+01  0.2566E+03
      3.583  0.6342E+01  0.2569E+03
      3.643  0.3882E+01  0.2572E+03
      3.704  0.1116E+01  0.2572E+03
      3.765  0.5743E-01  0.2573E+03
      3.826  0.1830E+00  0.2573E+03
      3.886  0.3155E+01  0.2575E+03
      3.947  0.1255E+02  0.2582E+03
      4.008  0.2014E+02  0.2595E+03
      4.069  0.1898E+02  0.2606E+03
      4.129  0.1249E+02  0.2614E+03
      4.190  0.7397E+01  0.2619E+03
      4.251  0.4392E+01  0.2621E+03
      4.312  0.3741E+01  0.2624E+03
      4.372  0.4984E+01  0.2627E+03
      4.433  0.1078E+02  0.2633E+03
      4.494  0.2135E+02  0.2647E+03
      4.555  0.2039E+02  0.2659E+03
      4.616  0.1930E+02  0.2671E+03
      4.676  0.3616E+02  0.2693E+03
      4.737  0.4872E+02  0.2723E+03
      4.798  0.4170E+02  0.2749E+03
      4.859  0.4069E+02  0.2774E+03
      4.919  0.5627E+02  0.2809E+03
      4.980  0.5616E+02  0.2843E+03
      5.041  0.4355E+02  0.2870E+03
      5.102  0.2802E+02  0.2887E+03
      5.162  0.3301E+02  0.2907E+03
      5.223  0.5559E+02  0.2942E+03
      5.284  0.6510E+02  0.2982E+03
      5.345  0.5815E+02  0.3018E+03
      5.405  0.4070E+02  0.3043E+03
      5.466  0.1991E+02  0.3055E+03
      5.527  0.1258E+02  0.3062E+03
      5.588  0.1852E+02  0.3074E+03
      5.648  0.4177E+02  0.3100E+03
      5.709  0.5664E+02  0.3135E+03
      5.770  0.5470E+02  0.3168E+03
      5.831  0.5126E+02  0.3200E+03
      5.892  0.4676E+02  0.3229E+03
      5.952  0.5441E+02  0.3262E+03
      6.013  0.5357E+02  0.3295E+03
      6.074  0.5263E+02  0.3327E+03
      6.135  0.4421E+02  0.3355E+03
      6.195  0.3400E+02  0.3375E+03
      6.256  0.2128E+02  0.3389E+03
      6.317  0.1089E+02  0.3395E+03
      6.378  0.1003E+02  0.3401E+03
      6.438  0.1364E+02  0.3410E+03
      6.499  0.2302E+02  0.3424E+03
      6.560  0.2411E+02  0.3439E+03
      6.621  0.1679E+02  0.3449E+03
      6.681  0.8196E+01  0.3454E+03
      6.742  0.2611E+01  0.3456E+03
      6.803  0.6101E+01  0.3460E+03
      6.864  0.1203E+02  0.3467E+03
      6.925  0.1482E+02  0.3476E+03
      6.985  0.1705E+02  0.3487E+03
      7.046  0.1630E+02  0.3497E+03
      7.107  0.1406E+02  0.3505E+03
      7.168  0.9601E+01  0.3511E+03
      7.228  0.4434E+01  0.3514E+03
      7.289  0.1556E+01  0.3515E+03
      7.350  0.3533E+00  0.3515E+03
      7.411  0.5904E+00  0.3515E+03
      7.471  0.3135E+01  0.3517E+03
      7.532  0.3749E+01  0.3520E+03
      7.593  0.6346E+00  0.3520E+03
      7.654  0.9609E-02  0.3520E+03
      7.714  0.9483E-05  0.3520E+03
      7.775  0.5298E-09  0.3520E+03
      7.836  0.1606E-14  0.3520E+03
      7.897  0.0000E+00  0.3520E+03
      7.957  0.0000E+00  0.3520E+03
      8.018  0.0000E+00  0.3520E+03
      8.079  0.0000E+00  0.3520E+03
      8.140  0.0000E+00  0.3520E+03
      8.201  0.0000E+00  0.3520E+03
      8.261  0.0000E+00  0.3520E+03
      8.322  0.0000E+00  0.3520E+03
      8.31635445     -9.90768548  301      3.46181384      1.00000000
     -9.908  0.0000E+00  0.0000E+00
     -9.847  0.0000E+00  0.0000E+00
     -9.786  0.0000E+00  0.0000E+00
     -9.725  0.0000E+00  0.0000E+00
     -9.665  0.0000E+00  0.0000E+00
     -9.604  0.0000E+00  0.0000E+00
     -9.543  0.0000E+00  0.0000E+00
     -9.482  0.0000E+00  0.0000E+00
     -9.422  0.0000E+00  0.0000E+00
     -9.361  0.3427E-16  0.2082E-17
     -9.300  0.8559E-11  0.5199E-12
     -9.239  0.1215E-06  0.7382E-08
     -9.179  0.1013E-03  0.6163E-05
     -9.118  0.5541E-02  0.3428E-03
     -9.057  0.2456E-01  0.1835E-02
     -8.996  0.1083E-01  0.2493E-02
     -8.936  0.1439E-01  0.3367E-02
     -8.875  0.6889E-01  0.7552E-02
     -8.814  0.5416E-01  0.1084E-01
     -8.753  0.9319E-01  0.1650E-01
     -8.693  0.1113E+00  0.2327E-01
     -8.632  0.5491E-01  0.2660E-01
     -8.571  0.1272E+00  0.3433E-01
     -8.511  0.1328E+00  0.4240E-01
     -8.450  0.1168E+00  0.4949E-01
     -8.389  0.8071E-01  0.5439E-01
     -8.328  0.5604E-01  0.5780E-01
     -8.268  0.6613E-01  0.6182E-01
     -8.207  0.8551E-01  0.6701E-01
     -8.146  0.7554E-01  0.7160E-01
     -8.085  0.6991E-01  0.7585E-01
     -8.025  0.1220E+00  0.8326E-01
     -7.964  0.1873E+00  0.9464E-01
     -7.903  0.1936E+00  0.1064E+00
     -7.842  0.2854E+00  0.1237E+00
     -7.782  0.3307E+00  0.1438E+00
     -7.721  0.2528E+00  0.1592E+00
     -7.660  0.2676E+00  0.1754E+00
     -7.599  0.1932E+00  0.1872E+00
     -7.539  0.1452E+00  0.1960E+00
     -7.478  0.9630E-01  0.2018E+00
     -7.417  0.5275E-01  0.2050E+00
     -7.356  0.5234E-01  0.2082E+00
     -7.296  0.1298E+00  0.2161E+00
     -7.235  0.2089E+00  0.2288E+00
     -7.174  0.2987E+00  0.2469E+00
     -7.113  0.3407E+00  0.2676E+00
     -7.053  0.3012E+00  0.2859E+00
     -6.992  0.1504E+00  0.2951E+00
     -6.931  0.1464E+00  0.3040E+00
     -6.870  0.3093E+00  0.3227E+00
     -6.810  0.3884E+00  0.3463E+00
     -6.749  0.3408E+00  0.3670E+00
     -6.688  0.3408E+00  0.3878E+00
     -6.627  0.3468E+00  0.4088E+00
     -6.567  0.3457E+00  0.4298E+00
     -6.506  0.3468E+00  0.4509E+00
     -6.445  0.3346E+00  0.4712E+00
     -6.384  0.3936E+00  0.4951E+00
     -6.324  0.3361E+00  0.5155E+00
     -6.263  0.2480E+00  0.5306E+00
     -6.202  0.2320E+00  0.5447E+00
     -6.141  0.1784E+00  0.5555E+00
     -6.081  0.3180E-01  0.5575E+00
     -6.020  0.5974E-03  0.5575E+00
     -5.959  0.2522E-05  0.5575E+00
     -5.898  0.7270E-03  0.5575E+00
     -5.838  0.2540E-01  0.5591E+00
     -5.777  0.1235E+00  0.5666E+00
     -5.716  0.1729E+00  0.5771E+00
     -5.655  0.1169E+00  0.5842E+00
     -5.595  0.5002E-01  0.5872E+00
     -5.534  0.5287E-02  0.5876E+00
     -5.473  0.2078E-01  0.5888E+00
     -5.412  0.8677E-01  0.5941E+00
     -5.352  0.1847E+00  0.6053E+00
     -5.291  0.2918E+00  0.6230E+00
     -5.230  0.3582E+00  0.6448E+00
     -5.169  0.2633E+00  0.6608E+00
     -5.109  0.1976E+00  0.6728E+00
     -5.048  0.1792E+00  0.6837E+00
     -4.987  0.1142E+00  0.6906E+00
     -4.926  0.3009E-01  0.6924E+00
     -4.866  0.4383E-02  0.6927E+00
     -4.805  0.3697E-01  0.6949E+00
     -4.744  0.1311E+00  0.7029E+00
     -4.683  0.1836E+00  0.7141E+00
     -4.623  0.8535E-01  0.7192E+00
     -4.562  0.4110E-01  0.7217E+00
     -4.501  0.1196E-01  0.7225E+00
     -4.440  0.4551E-03  0.7225E+00
     -4.380  0.9076E-05  0.7225E+00
     -4.319  0.1837E-02  0.7226E+00
     -4.258  0.4433E-01  0.7253E+00
     -4.197  0.1889E+00  0.7368E+00
     -4.137  0.3477E+00  0.7579E+00
     -4.076  0.4954E+00  0.7880E+00
     -4.015  0.5309E+00  0.8202E+00
     -3.954  0.4286E+00  0.8463E+00
     -3.894  0.3331E+00  0.8665E+00
     -3.833  0.2109E+00  0.8793E+00
     -3.772  0.1423E+00  0.8880E+00
     -3.712  0.1729E+00  0.8985E+00
     -3.651  0.3129E+00  0.9175E+00
     -3.590  0.4834E+00  0.9468E+00
     -3.529  0.5352E+00  0.9794E+00
     -3.469  0.4513E+00  0.1007E+01
     -3.408  0.3091E+00  0.1026E+01
     -3.347  0.1722E+00  0.1036E+01
     -3.286  0.1295E+00  0.1044E+01
     -3.226  0.5740E-01  0.1047E+01
     -3.165  0.2400E-01  0.1049E+01
     -3.104  0.5941E-01  0.1052E+01
     -3.043  0.6677E-01  0.1056E+01
     -2.983  0.9029E-01  0.1062E+01
     -2.922  0.9096E-01  0.1068E+01
     -2.861  0.7730E-01  0.1072E+01
     -2.800  0.5827E-01  0.1076E+01
     -2.740  0.4246E-01  0.1078E+01
     -2.679  0.1031E+00  0.1085E+01
     -2.618  0.1722E+00  0.1095E+01
     -2.557  0.2405E+00  0.1110E+01
     -2.497  0.2267E+00  0.1123E+01
     -2.436  0.1591E+00  0.1133E+01
     -2.375  0.6715E-01  0.1137E+01
     -2.314  0.5477E-02  0.1137E+01
     -2.254  0.4694E-04  0.1137E+01
     -2.193  0.3092E-07  0.1138E+01
     -2.132  0.3678E-05  0.1138E+01
     -2.071  0.9491E-03  0.1138E+01
     -2.011  0.2317E-01  0.1139E+01
     -1.950  0.1170E+00  0.1146E+01
     -1.889  0.2244E+00  0.1160E+01
     -1.828  0.2648E+00  0.1176E+01
     -1.768  0.2350E+00  0.1190E+01
     -1.707  0.1033E+00  0.1196E+01
     -1.646  0.1839E-01  0.1197E+01
     -1.585  0.6401E-03  0.1197E+01
     -1.525  0.1993E-05  0.1198E+01
     -1.464  0.2639E-05  0.1198E+01
     -1.403  0.8365E-03  0.1198E+01
     -1.342  0.2544E-01  0.1199E+01
     -1.282  0.1280E+00  0.1207E+01
     -1.221  0.1747E+00  0.1217E+01
     -1.160  0.1360E+00  0.1226E+01
     -1.099  0.7517E-01  0.1230E+01
     -1.039  0.3306E-01  0.1232E+01
     -0.978  0.2896E-02  0.1232E+01
     -0.917  0.2325E-04  0.1233E+01
     -0.856  0.1295E-03  0.1233E+01
     -0.796  0.1509E-01  0.1233E+01
     -0.735  0.2056E+00  0.1246E+01
     -0.674  0.5324E+00  0.1278E+01
     -0.613  0.4956E+00  0.1308E+01
     -0.553  0.2084E+00  0.1321E+01
     -0.492  0.3525E-01  0.1323E+01
     -0.431  0.7352E-01  0.1328E+01
     -0.370  0.1172E+00  0.1335E+01
     -0.310  0.2193E+00  0.1348E+01
     -0.249  0.4742E+00  0.1377E+01
     -0.188  0.6296E+00  0.1415E+01
     -0.127  0.6897E+00  0.1457E+01
     -0.067  0.6232E+00  0.1495E+01
     -0.006  0.5354E+00  0.1527E+01
      0.055  0.6100E+00  0.1564E+01
      0.116  0.6925E+00  0.1607E+01
      0.176  0.5246E+00  0.1638E+01
      0.237  0.2100E+00  0.1651E+01
      0.298  0.2228E-01  0.1652E+01
      0.359  0.5013E-03  0.1653E+01
      0.419  0.7614E-02  0.1653E+01
      0.480  0.3983E-01  0.1655E+01
      0.541  0.1193E+00  0.1663E+01
      0.602  0.3471E+00  0.1684E+01
      0.662  0.6729E+00  0.1725E+01
      0.723  0.8718E+00  0.1778E+01
      0.784  0.7959E+00  0.1826E+01
      0.844  0.6183E+00  0.1863E+01
      0.905  0.5385E+00  0.1896E+01
      0.966  0.6321E+00  0.1935E+01
      1.027  0.5007E+00  0.1965E+01
      1.087  0.3361E+00  0.1985E+01
      1.148  0.3869E+00  0.2009E+01
      1.209  0.4903E+00  0.2039E+01
      1.270  0.5287E+00  0.2071E+01
      1.330  0.4964E+00  0.2101E+01
      1.391  0.4553E+00  0.2129E+01
      1.452  0.4213E+00  0.2154E+01
      1.513  0.3040E+00  0.2173E+01
      1.573  0.1614E+00  0.2182E+01
      1.634  0.1199E+00  0.2190E+01
      1.695  0.1060E+00  0.2196E+01
      1.756  0.2227E+00  0.2210E+01
      1.816  0.4238E+00  0.2235E+01
      1.877  0.5643E+00  0.2270E+01
      1.938  0.6498E+00  0.2309E+01
      1.999  0.6042E+00  0.2346E+01
      2.059  0.4801E+00  0.2375E+01
      2.120  0.3797E+00  0.2398E+01
      2.181  0.3589E+00  0.2420E+01
      2.242  0.2496E+00  0.2435E+01
      2.302  0.1641E+00  0.2445E+01
      2.363  0.8665E-01  0.2450E+01
      2.424  0.3647E-01  0.2453E+01
      2.485  0.4646E-01  0.2455E+01
      2.545  0.1039E+00  0.2462E+01
      2.606  0.1768E+00  0.2472E+01
      2.667  0.2390E+00  0.2487E+01
      2.728  0.2332E+00  0.2501E+01
      2.788  0.1796E+00  0.2512E+01
      2.849  0.1056E+00  0.2518E+01
      2.910  0.4591E-01  0.2521E+01
      2.971  0.2287E-01  0.2523E+01
      3.031  0.4990E-01  0.2526E+01
      3.092  0.1065E+00  0.2532E+01
      3.153  0.1263E+00  0.2540E+01
      3.214  0.9990E-01  0.2546E+01
      3.274  0.9126E-01  0.2551E+01
      3.335  0.5067E-01  0.2555E+01
      3.396  0.3832E-01  0.2557E+01
      3.457  0.4625E-01  0.2560E+01
      3.517  0.6325E-01  0.2564E+01
      3.578  0.4181E-01  0.2566E+01
      3.639  0.6962E-01  0.2570E+01
      3.700  0.3453E-01  0.2572E+01
      3.760  0.2104E-02  0.2572E+01
      3.821  0.4111E-03  0.2573E+01
      3.882  0.1408E-01  0.2573E+01
      3.943  0.6269E-01  0.2577E+01
      4.003  0.1170E+00  0.2584E+01
      4.064  0.2181E+00  0.2598E+01
      4.125  0.1655E+00  0.2608E+01
      4.186  0.9261E-01  0.2613E+01
      4.246  0.8339E-01  0.2618E+01
      4.307  0.4770E-01  0.2621E+01
      4.368  0.2649E-01  0.2623E+01
      4.429  0.5112E-01  0.2626E+01
      4.489  0.9565E-01  0.2632E+01
      4.550  0.1947E+00  0.2644E+01
      4.611  0.2880E+00  0.2661E+01
      4.672  0.3932E+00  0.2685E+01
      4.732  0.3707E+00  0.2707E+01
      4.793  0.3674E+00  0.2730E+01
      4.854  0.4448E+00  0.2757E+01
      4.915  0.4891E+00  0.2786E+01
      4.975  0.5033E+00  0.2817E+01
      5.036  0.5667E+00  0.2851E+01
      5.097  0.4479E+00  0.2879E+01
      5.158  0.2441E+00  0.2894E+01
      5.218  0.2591E+00  0.2909E+01
      5.279  0.4463E+00  0.2936E+01
      5.340  0.6427E+00  0.2975E+01
      5.401  0.6744E+00  0.3016E+01
      5.461  0.4481E+00  0.3044E+01
      5.522  0.2396E+00  0.3058E+01
      5.583  0.1616E+00  0.3068E+01
      5.643  0.2301E+00  0.3082E+01
      5.704  0.3441E+00  0.3103E+01
      5.765  0.4777E+00  0.3132E+01
      5.826  0.5553E+00  0.3166E+01
      5.886  0.5024E+00  0.3196E+01
      5.947  0.5025E+00  0.3227E+01
      6.008  0.5662E+00  0.3261E+01
      6.069  0.5303E+00  0.3293E+01
      6.129  0.5026E+00  0.3324E+01
      6.190  0.4515E+00  0.3351E+01
      6.251  0.3769E+00  0.3374E+01
      6.312  0.2416E+00  0.3389E+01
      6.372  0.9845E-01  0.3395E+01
      6.433  0.6916E-01  0.3399E+01
      6.494  0.1502E+00  0.3408E+01
      6.555  0.1881E+00  0.3420E+01
      6.615  0.2435E+00  0.3434E+01
      6.676  0.2361E+00  0.3449E+01
      6.737  0.1015E+00  0.3455E+01
      6.798  0.3881E-01  0.3457E+01
      6.858  0.6290E-01  0.3461E+01
      6.919  0.7774E-01  0.3466E+01
      6.980  0.1020E+00  0.3472E+01
      7.041  0.1463E+00  0.3481E+01
      7.101  0.1777E+00  0.3492E+01
      7.162  0.1770E+00  0.3502E+01
      7.223  0.1273E+00  0.3510E+01
      7.284  0.6326E-01  0.3514E+01
      7.344  0.1747E-01  0.3515E+01
      7.405  0.1505E-01  0.3516E+01
      7.466  0.3340E-01  0.3518E+01
      7.527  0.2816E-01  0.3520E+01
      7.587  0.5585E-02  0.3520E+01
      7.648  0.1014E-03  0.3520E+01
      7.709  0.1215E-06  0.3520E+01
      7.770  0.8559E-11  0.3520E+01
      7.830  0.3655E-16  0.3520E+01
      7.891  0.0000E+00  0.3520E+01
      7.952  0.0000E+00  0.3520E+01
      8.013  0.0000E+00  0.3520E+01
      8.073  0.0000E+00  0.3520E+01
      8.134  0.0000E+00  0.3520E+01
      8.195  0.0000E+00  0.3520E+01
      8.256  0.0000E+00  0.3520E+01
      8.316  0.0000E+00  0.3520E+01
