 running   16 mpi-ranks, on    1 nodes
 distrk:  each k-point on   16 cores,    1 groups
 distr:  one band on    1 cores,   16 groups
 vasp.6.4.0 14Feb23 (build Mar 14 2023 01:08:06) complex                        
  
 POSCAR found type information on POSCAR Ge
 POSCAR found :  1 types and      64 ions
 scaLAPACK will be used
 -----------------------------------------------------------------------------
|                                                                             |
|           W    W    AA    RRRRR   N    N  II  N    N   GGGG   !!!           |
|           W    W   A  A   R    R  NN   N  II  NN   N  G    G  !!!           |
|           W    W  A    A  R    R  N N  N  II  N N  N  G       !!!           |
|           W WW W  AAAAAA  RRRRR   N  N N  II  N  N N  G  GGG   !            |
|           WW  WW  A    A  R   R   N   NN  II  N   NN  G    G                |
|           W    W  A    A  R    R  N    N  II  N    N   GGGG   !!!           |
|                                                                             |
|     For optimal performance we recommend to set                             |
|       NCORE = 2 up to number-of-cores-per-socket                            |
|     NCORE specifies how many cores store one orbital (NPAR=cpu/NCORE).      |
|     This setting can greatly improve the performance of VASP for DFT.       |
|     The default, NCORE=1 might be grossly inefficient on modern             |
|     multi-core architectures or massively parallel machines. Do your        |
|     own testing! More info at https://www.vasp.at/wiki/index.php/NCORE      |
|     Unfortunately you need to use the default for GW and RPA                |
|     calculations (for HF NCORE is supported but not extensively tested      |
|     yet).                                                                   |
|                                                                             |
 -----------------------------------------------------------------------------

 LDA part: xc-table for Pade appr. of Perdew
 POSCAR, INCAR and KPOINTS ok, starting setup
 FFT: planning ... GRIDC
 FFT: planning ... GRID_SOFT
 FFT: planning ... GRID
 WAVECAR not read
 prediction of wavefunctions initialized - no I/O
 entering main loop
       N       E                     dE             d eps       ncg     rms          rms(c)
DAV:   1     0.459293057650E+03    0.45929E+03   -0.48690E+04  2816   0.493E+02
DAV:   2    -0.241738536986E+03   -0.70103E+03   -0.66698E+03  3472   0.122E+02
DAV:   3    -0.287904216067E+03   -0.46166E+02   -0.45413E+02  3440   0.320E+01
DAV:   4    -0.288741608248E+03   -0.83739E+00   -0.83042E+00  3552   0.411E+00
DAV:   5    -0.288758494710E+03   -0.16886E-01   -0.16851E-01  3360   0.505E-01    0.178E+01
DAV:   6    -0.286703216466E+03    0.20553E+01   -0.93468E-01  3280   0.148E+00    0.110E+01
DAV:   7    -0.285787644955E+03    0.91557E+00   -0.20291E+00  3168   0.230E+00    0.671E-01
DAV:   8    -0.285822280850E+03   -0.34636E-01   -0.81956E-02  3216   0.431E-01    0.170E-01
DAV:   9    -0.285827705293E+03   -0.54244E-02   -0.52306E-03  3472   0.134E-01    0.872E-02
DAV:  10    -0.285828318107E+03   -0.61281E-03   -0.93419E-04  3088   0.568E-02    0.138E-02
DAV:  11    -0.285828349803E+03   -0.31696E-04   -0.14090E-05  3648   0.631E-03    0.574E-03
DAV:  12    -0.285828355437E+03   -0.56334E-05   -0.10430E-05  3024   0.631E-03    0.125E-03
DAV:  13    -0.285828355881E+03   -0.44457E-06   -0.55327E-08  1888   0.418E-04
      1 T=   288. E= -.28333581E+03 F= -.28582836E+03 E0= -.28582302E+03  EK= 0.24925E+01 SP= 0.00E+00 SK= 0.00E+00
 bond charge predicted
       N       E                     dE             d eps       ncg     rms          rms(c)
DAV:   1    -0.285824918149E+03    0.34373E-02   -0.15704E-01  2976   0.697E-01    0.143E-01
DAV:   2    -0.285826159883E+03   -0.12417E-02   -0.13965E-02  3488   0.174E-01    0.440E-02
DAV:   3    -0.285826139082E+03    0.20801E-04   -0.19707E-04  3424   0.249E-02    0.267E-02
DAV:   4    -0.285826135591E+03    0.34914E-05   -0.55124E-05  3408   0.127E-02    0.793E-03
DAV:   5    -0.285826136219E+03   -0.62845E-06   -0.89215E-06  3280   0.545E-03
      2 T=   280. E= -.28340231E+03 F= -.28582614E+03 E0= -.28582084E+03  EK= 0.24238E+01 SP= 0.00E+00 SK= 0.00E+00
 bond charge predicted
 prediction of wavefunctions
       N       E                     dE             d eps       ncg     rms          rms(c)
DAV:   1    -0.285816295591E+03    0.98400E-02   -0.17860E-03  2944   0.298E-01    0.357E-02
DAV:   2    -0.285816534697E+03   -0.23911E-03   -0.27356E-03  3072   0.779E-02    0.195E-02
DAV:   3    -0.285816529739E+03    0.49578E-05   -0.35517E-05  3536   0.107E-02    0.115E-02
DAV:   4    -0.285816525017E+03    0.47222E-05   -0.91051E-06  3024   0.562E-03    0.521E-03
DAV:   5    -0.285816524822E+03    0.19473E-06   -0.44704E-06  2992   0.322E-03
      3 T=   272. E= -.28346255E+03 F= -.28581652E+03 E0= -.28581133E+03  EK= 0.23540E+01 SP= 0.00E+00 SK= 0.00E+00
 bond charge predicted
 prediction of wavefunctions
       N       E                     dE             d eps       ncg     rms          rms(c)
DAV:   1    -0.285799235228E+03    0.17290E-01   -0.11330E-03  3136   0.288E-01    0.275E-02
DAV:   2    -0.285799422482E+03   -0.18725E-03   -0.21481E-03  3040   0.684E-02    0.180E-02
DAV:   3    -0.285799419073E+03    0.34085E-05   -0.29412E-05  3552   0.958E-03    0.111E-02
DAV:   4    -0.285799415392E+03    0.36807E-05   -0.65954E-06  3152   0.483E-03    0.553E-03
DAV:   5    -0.285799415262E+03    0.13005E-06   -0.42828E-06  2976   0.324E-03
      4 T=   266. E= -.28349827E+03 F= -.28579942E+03 E0= -.28579437E+03  EK= 0.23011E+01 SP= 0.00E+00 SK= 0.00E+00
 bond charge predicted
 prediction of wavefunctions
       N       E                     dE             d eps       ncg     rms          rms(c)
DAV:   1    -0.285775676403E+03    0.23739E-01   -0.18555E-03  3120   0.292E-01    0.332E-02
DAV:   2    -0.285775907897E+03   -0.23149E-03   -0.26428E-03  3088   0.765E-02    0.192E-02
DAV:   3    -0.285775904134E+03    0.37631E-05   -0.34785E-05  3504   0.104E-02    0.115E-02
DAV:   4    -0.285775900002E+03    0.41323E-05   -0.70105E-06  3232   0.496E-03    0.554E-03
DAV:   5    -0.285775899688E+03    0.31386E-06   -0.41035E-06  2768   0.316E-03
      5 T=   262. E= -.28350352E+03 F= -.28577590E+03 E0= -.28577104E+03  EK= 0.22724E+01 SP= 0.00E+00 SK= 0.00E+00
 bond charge predicted
 prediction of wavefunctions
       N       E                     dE             d eps       ncg     rms          rms(c)
DAV:   1    -0.285746461794E+03    0.29438E-01   -0.13576E-03  3184   0.284E-01    0.300E-02
DAV:   2    -0.285746656681E+03   -0.19489E-03   -0.22501E-03  3024   0.703E-02    0.184E-02
DAV:   3    -0.285746652085E+03    0.45965E-05   -0.31544E-05  3584   0.996E-03    0.112E-02
DAV:   4    -0.285746647231E+03    0.48543E-05   -0.86211E-06  3216   0.549E-03    0.492E-03
DAV:   5    -0.285746646934E+03    0.29680E-06   -0.44619E-06  2832   0.324E-03
      6 T=   257. E= -.28351925E+03 F= -.28574665E+03 E0= -.28574201E+03  EK= 0.22274E+01 SP= 0.00E+00 SK= 0.00E+00
 bond charge predicted
 prediction of wavefunctions
       N       E                     dE             d eps       ncg     rms          rms(c)
DAV:   1    -0.285711308841E+03    0.35338E-01   -0.13879E-03  3104   0.284E-01    0.303E-02
DAV:   2    -0.285711504131E+03   -0.19529E-03   -0.22522E-03  3072   0.707E-02    0.179E-02
DAV:   3    -0.285711500372E+03    0.37591E-05   -0.30293E-05  3552   0.972E-03    0.109E-02
DAV:   4    -0.285711496221E+03    0.41513E-05   -0.65513E-06  3232   0.490E-03    0.497E-03
DAV:   5    -0.285711495921E+03    0.29998E-06   -0.40300E-06  2752   0.315E-03
      7 T=   255. E= -.28350336E+03 F= -.28571150E+03 E0= -.28570708E+03  EK= 0.22081E+01 SP= 0.00E+00 SK= 0.00E+00
 bond charge predicted
 prediction of wavefunctions
       N       E                     dE             d eps       ncg     rms          rms(c)
DAV:   1    -0.285670427494E+03    0.41069E-01   -0.18963E-03  3104   0.286E-01    0.326E-02
DAV:   2    -0.285670649070E+03   -0.22158E-03   -0.25354E-03  3072   0.751E-02    0.193E-02
DAV:   3    -0.285670644690E+03    0.43800E-05   -0.33497E-05  3536   0.103E-02    0.118E-02
DAV:   4    -0.285670640031E+03    0.46584E-05   -0.84836E-06  3328   0.550E-03    0.524E-03
DAV:   5    -0.285670639876E+03    0.15564E-06   -0.45379E-06  2816   0.329E-03
      8 T=   248. E= -.28352314E+03 F= -.28567064E+03 E0= -.28566648E+03  EK= 0.21475E+01 SP= 0.00E+00 SK= 0.00E+00
 bond charge predicted
 prediction of wavefunctions
       N       E                     dE             d eps       ncg     rms          rms(c)
DAV:   1    -0.285625084653E+03    0.45555E-01   -0.13630E-03  3088   0.274E-01    0.290E-02
DAV:   2    -0.285625274019E+03   -0.18937E-03   -0.21692E-03  3104   0.686E-02    0.180E-02
DAV:   3    -0.285625269697E+03    0.43220E-05   -0.28217E-05  3504   0.956E-03    0.110E-02
DAV:   4    -0.285625265447E+03    0.42499E-05   -0.77901E-06  3168   0.521E-03    0.512E-03
DAV:   5    -0.285625265249E+03    0.19846E-06   -0.42004E-06  2768   0.316E-03
      9 T=   237. E= -.28356849E+03 F= -.28562527E+03 E0= -.28562134E+03  EK= 0.20568E+01 SP= 0.00E+00 SK= 0.00E+00
 bond charge predicted
 prediction of wavefunctions
       N       E                     dE             d eps       ncg     rms          rms(c)
DAV:   1    -0.285575519303E+03    0.49746E-01   -0.18778E-03  3088   0.272E-01    0.321E-02
DAV:   2    -0.285575731695E+03   -0.21239E-03   -0.24226E-03  3120   0.734E-02    0.192E-02
DAV:   3    -0.285575727375E+03    0.43202E-05   -0.30996E-05  3504   0.988E-03    0.119E-02
DAV:   4    -0.285575722842E+03    0.45335E-05   -0.84024E-06  3376   0.540E-03    0.510E-03
DAV:   5    -0.285575722735E+03    0.10708E-06   -0.41603E-06  2656   0.316E-03
     10 T=   233. E= -.28355727E+03 F= -.28557572E+03 E0= -.28557202E+03  EK= 0.20185E+01 SP= 0.00E+00 SK= 0.00E+00
 bond charge predicted
 prediction of wavefunctions
       N       E                     dE             d eps       ncg     rms          rms(c)
DAV:   1    -0.285521465263E+03    0.54258E-01   -0.16857E-03  3056   0.269E-01    0.309E-02
DAV:   2    -0.285521661381E+03   -0.19612E-03   -0.22477E-03  3104   0.707E-02    0.182E-02
DAV:   3    -0.285521657409E+03    0.39714E-05   -0.28907E-05  3504   0.967E-03    0.111E-02
DAV:   4    -0.285521653281E+03    0.41283E-05   -0.74908E-06  3184   0.521E-03    0.495E-03
DAV:   5    -0.285521653121E+03    0.15999E-06   -0.39217E-06  2464   0.308E-03
     11 T=   230. E= -.28352569E+03 F= -.28552165E+03 E0= -.28551814E+03  EK= 0.19960E+01 SP= 0.00E+00 SK= 0.00E+00
 bond charge predicted
 prediction of wavefunctions
       N       E                     dE             d eps       ncg     rms          rms(c)
DAV:   1    -0.285464203338E+03    0.57450E-01   -0.13805E-03  2976   0.263E-01    0.292E-02
DAV:   2    -0.285464379395E+03   -0.17606E-03   -0.20300E-03  3072   0.667E-02    0.182E-02
DAV:   3    -0.285464373847E+03    0.55481E-05   -0.26725E-05  3536   0.933E-03    0.113E-02
DAV:   4    -0.285464368401E+03    0.54463E-05   -0.10087E-05  3184   0.588E-03    0.457E-03
DAV:   5    -0.285464368158E+03    0.24279E-06   -0.46074E-06  2832   0.323E-03
     12 T=   224. E= -.28352763E+03 F= -.28546437E+03 E0= -.28546103E+03  EK= 0.19367E+01 SP= 0.00E+00 SK= 0.00E+00
 bond charge predicted
 prediction of wavefunctions
       N       E                     dE             d eps       ncg     rms          rms(c)
DAV:   1    -0.285406044304E+03    0.58324E-01   -0.15979E-03  2976   0.256E-01    0.307E-02
DAV:   2    -0.285406225155E+03   -0.18085E-03   -0.20824E-03  3184   0.689E-02    0.183E-02
DAV:   3    -0.285406220771E+03    0.43843E-05   -0.26232E-05  3488   0.913E-03    0.113E-02
DAV:   4    -0.285406216050E+03    0.47211E-05   -0.80934E-06  3344   0.535E-03    0.441E-03
DAV:   5    -0.285406215891E+03    0.15880E-06   -0.37774E-06  2304   0.298E-03
     13 T=   218. E= -.28351615E+03 F= -.28540622E+03 E0= -.28540303E+03  EK= 0.18901E+01 SP= 0.00E+00 SK= 0.00E+00
 bond charge predicted
 prediction of wavefunctions
       N       E                     dE             d eps       ncg     rms          rms(c)
DAV:   1    -0.285344016500E+03    0.62200E-01   -0.14931E-03  2928   0.254E-01    0.294E-02
DAV:   2    -0.285344192705E+03   -0.17620E-03   -0.20217E-03  3088   0.669E-02    0.179E-02
DAV:   3    -0.285344188452E+03    0.42525E-05   -0.25889E-05  3520   0.915E-03    0.110E-02
DAV:   4    -0.285344184215E+03    0.42371E-05   -0.80848E-06  3296   0.535E-03    0.459E-03
DAV:   5    -0.285344184213E+03    0.19445E-08   -0.40217E-06  2448   0.309E-03
     14 T=   214. E= -.28349270E+03 F= -.28534418E+03 E0= -.28534113E+03  EK= 0.18515E+01 SP= 0.00E+00 SK= 0.00E+00
 bond charge predicted
 prediction of wavefunctions
       N       E                     dE             d eps       ncg     rms          rms(c)
DAV:   1    -0.285281288999E+03    0.62895E-01   -0.16309E-03  2944   0.249E-01    0.302E-02
DAV:   2    -0.285281460815E+03   -0.17182E-03   -0.20018E-03  3104   0.664E-02    0.190E-02
DAV:   3    -0.285281454170E+03    0.66448E-05   -0.26931E-05  3504   0.938E-03    0.119E-02
DAV:   4    -0.285281447657E+03    0.65126E-05   -0.12093E-05  3296   0.642E-03    0.420E-03
DAV:   5    -0.285281447455E+03    0.20200E-06   -0.49399E-06  2736   0.335E-03
     15 T=   209. E= -.28347406E+03 F= -.28528145E+03 E0= -.28527850E+03  EK= 0.18074E+01 SP= 0.00E+00 SK= 0.00E+00
 bond charge predicted
 prediction of wavefunctions
       N       E                     dE             d eps       ncg     rms          rms(c)
DAV:   1    -0.285217839680E+03    0.63608E-01   -0.17863E-03  2960   0.247E-01    0.311E-02
DAV:   2    -0.285218020707E+03   -0.18103E-03   -0.21000E-03  3040   0.679E-02    0.187E-02
DAV:   3    -0.285218015265E+03    0.54420E-05   -0.26757E-05  3568   0.934E-03    0.116E-02
DAV:   4    -0.285218010048E+03    0.52172E-05   -0.10577E-05  3296   0.590E-03    0.435E-03
DAV:   5    -0.285218010031E+03    0.17406E-07   -0.41029E-06  2416   0.307E-03
     16 T=   208. E= -.28341547E+03 F= -.28521801E+03 E0= -.28521514E+03  EK= 0.18025E+01 SP= 0.00E+00 SK= 0.00E+00
 bond charge predicted
 prediction of wavefunctions
       N       E                     dE             d eps       ncg     rms          rms(c)
DAV:   1    -0.285152575888E+03    0.65434E-01   -0.19203E-03  2960   0.247E-01    0.320E-02
DAV:   2    -0.285152758745E+03   -0.18286E-03   -0.21286E-03  3168   0.692E-02    0.189E-02
DAV:   3    -0.285152753813E+03    0.49319E-05   -0.27736E-05  3456   0.948E-03    0.117E-02
DAV:   4    -0.285152748947E+03    0.48658E-05   -0.92173E-06  3344   0.571E-03    0.448E-03
DAV:   5    -0.285152748926E+03    0.20763E-07   -0.41048E-06  2400   0.311E-03
     17 T=   207. E= -.28336006E+03 F= -.28515275E+03 E0= -.28514992E+03  EK= 0.17927E+01 SP= 0.00E+00 SK= 0.00E+00
 bond charge predicted
 prediction of wavefunctions
       N       E                     dE             d eps       ncg     rms          rms(c)
DAV:   1    -0.285086890493E+03    0.65858E-01   -0.18645E-03  3008   0.242E-01    0.314E-02
DAV:   2    -0.285087065151E+03   -0.17466E-03   -0.20266E-03  3168   0.682E-02    0.183E-02
DAV:   3    -0.285087060718E+03    0.44328E-05   -0.25634E-05  3504   0.900E-03    0.113E-02
DAV:   4    -0.285087056291E+03    0.44272E-05   -0.83138E-06  3344   0.530E-03    0.421E-03
DAV:   5    -0.285087056271E+03    0.19873E-07   -0.33022E-06  2160   0.281E-03
     18 T=   200. E= -.28335721E+03 F= -.28508706E+03 E0= -.28508422E+03  EK= 0.17299E+01 SP= 0.00E+00 SK= 0.00E+00
 bond charge predicted
 prediction of wavefunctions
       N       E                     dE             d eps       ncg     rms          rms(c)
DAV:   1    -0.285022140850E+03    0.64915E-01   -0.21396E-03  2960   0.235E-01    0.320E-02
DAV:   2    -0.285022320818E+03   -0.17997E-03   -0.20928E-03  3136   0.684E-02    0.188E-02
DAV:   3    -0.285022316072E+03    0.47466E-05   -0.26434E-05  3488   0.930E-03    0.115E-02
DAV:   4    -0.285022311371E+03    0.47006E-05   -0.90877E-06  3344   0.558E-03    0.436E-03
DAV:   5    -0.285022311322E+03    0.48952E-07   -0.36947E-06  2336   0.294E-03
     19 T=   197. E= -.28331938E+03 F= -.28502231E+03 E0= -.28501946E+03  EK= 0.17029E+01 SP= 0.00E+00 SK= 0.00E+00
 bond charge predicted
 prediction of wavefunctions
       N       E                     dE             d eps       ncg     rms          rms(c)
DAV:   1    -0.284956605340E+03    0.65706E-01   -0.19716E-03  2912   0.232E-01    0.314E-02
DAV:   2    -0.284956774038E+03   -0.16870E-03   -0.19883E-03  3120   0.669E-02    0.187E-02
DAV:   3    -0.284956769085E+03    0.49531E-05   -0.26002E-05  3504   0.921E-03    0.115E-02
DAV:   4    -0.284956764172E+03    0.49132E-05   -0.91941E-06  3312   0.566E-03    0.421E-03
DAV:   5    -0.284956764104E+03    0.67106E-07   -0.37237E-06  2288   0.295E-03
     20 T=   197. E= -.28325488E+03 F= -.28495676E+03 E0= -.28495388E+03  EK= 0.17019E+01 SP= 0.00E+00 SK= 0.00E+00
 bond charge predicted
 prediction of wavefunctions
       N       E                     dE             d eps       ncg     rms          rms(c)
DAV:   1    -0.284889813131E+03    0.66951E-01   -0.19619E-03  2928   0.231E-01    0.309E-02
DAV:   2    -0.284889976107E+03   -0.16298E-03   -0.19185E-03  3120   0.657E-02    0.180E-02
DAV:   3    -0.284889971201E+03    0.49053E-05   -0.25393E-05  3472   0.902E-03    0.111E-02
DAV:   4    -0.284889966597E+03    0.46046E-05   -0.89668E-06  3328   0.548E-03    0.398E-03
DAV:   5    -0.284889966642E+03   -0.45657E-07   -0.34166E-06  2208   0.285E-03
     21 T=   192. E= -.28322608E+03 F= -.28488997E+03 E0= -.28488703E+03  EK= 0.16639E+01 SP= 0.00E+00 SK= 0.00E+00
 bond charge predicted
 prediction of wavefunctions
       N       E                     dE             d eps       ncg     rms          rms(c)
DAV:   1    -0.284822877828E+03    0.67089E-01   -0.15448E-03  2960   0.224E-01    0.296E-02
DAV:   2    -0.284823022461E+03   -0.14463E-03   -0.17090E-03  3152   0.625E-02    0.174E-02
DAV:   3    -0.284823017287E+03    0.51748E-05   -0.22805E-05  3504   0.856E-03    0.108E-02
DAV:   4    -0.284823012277E+03    0.50099E-05   -0.88773E-06  3312   0.553E-03    0.358E-03
DAV:   5    -0.284823012239E+03    0.38018E-07   -0.34233E-06  2160   0.285E-03
     22 T=   188. E= -.28319704E+03 F= -.28482301E+03 E0= -.28482001E+03  EK= 0.16260E+01 SP= 0.00E+00 SK= 0.00E+00
 bond charge predicted
 prediction of wavefunctions
       N       E                     dE             d eps       ncg     rms          rms(c)
DAV:   1    -0.284756848544E+03    0.66164E-01   -0.23952E-03  2944   0.228E-01    0.323E-02
DAV:   2    -0.284757021628E+03   -0.17308E-03   -0.20288E-03  3120   0.671E-02    0.191E-02
DAV:   3    -0.284757015498E+03    0.61296E-05   -0.27190E-05  3520   0.945E-03    0.119E-02
DAV:   4    -0.284757009970E+03    0.55280E-05   -0.11447E-05  3328   0.619E-03    0.407E-03
DAV:   5    -0.284757010023E+03   -0.52635E-07   -0.41759E-06  2352   0.313E-03
     23 T=   180. E= -.28319903E+03 F= -.28475701E+03 E0= -.28475393E+03  EK= 0.15580E+01 SP= 0.00E+00 SK= 0.00E+00
 bond charge predicted
 prediction of wavefunctions
       N       E                     dE             d eps       ncg     rms          rms(c)
DAV:   1    -0.284695982556E+03    0.61027E-01   -0.25074E-03  2944   0.219E-01    0.329E-02
DAV:   2    -0.284696150337E+03   -0.16778E-03   -0.19815E-03  3168   0.667E-02    0.194E-02
DAV:   3    -0.284696144153E+03    0.61840E-05   -0.25736E-05  3472   0.919E-03    0.121E-02
DAV:   4    -0.284696138324E+03    0.58283E-05   -0.10902E-05  3344   0.601E-03    0.400E-03
DAV:   5    -0.284696138221E+03    0.10372E-06   -0.38115E-06  2288   0.299E-03
     24 T=   170. E= -.28322359E+03 F= -.28469614E+03 E0= -.28469300E+03  EK= 0.14726E+01 SP= 0.00E+00 SK= 0.00E+00
 bond charge predicted
 prediction of wavefunctions
       N       E                     dE             d eps       ncg     rms          rms(c)
DAV:   1    -0.284638594628E+03    0.57544E-01   -0.20686E-03  2960   0.208E-01    0.313E-02
DAV:   2    -0.284638740273E+03   -0.14565E-03   -0.17334E-03  3136   0.628E-02    0.186E-02
DAV:   3    -0.284638734301E+03    0.59716E-05   -0.22345E-05  3520   0.854E-03    0.116E-02
DAV:   4    -0.284638728728E+03    0.55728E-05   -0.10948E-05  3328   0.595E-03    0.348E-03
DAV:   5    -0.284638728770E+03   -0.41402E-07   -0.33033E-06  2208   0.282E-03
     25 T=   165. E= -.28320989E+03 F= -.28463873E+03 E0= -.28463552E+03  EK= 0.14288E+01 SP= 0.00E+00 SK= 0.00E+00
 bond charge predicted
 prediction of wavefunctions
       N       E                     dE             d eps       ncg     rms          rms(c)
DAV:   1    -0.284585748070E+03    0.52981E-01   -0.27582E-03  2944   0.211E-01    0.324E-02
DAV:   2    -0.284585910235E+03   -0.16217E-03   -0.18744E-03  3168   0.654E-02    0.183E-02
DAV:   3    -0.284585904908E+03    0.53273E-05   -0.23655E-05  3472   0.882E-03    0.115E-02
DAV:   4    -0.284585900381E+03    0.45269E-05   -0.10151E-05  3376   0.574E-03    0.375E-03
DAV:   5    -0.284585900542E+03   -0.16113E-06   -0.32441E-06  2064   0.280E-03
     26 T=   164. E= -.28316287E+03 F= -.28458590E+03 E0= -.28458261E+03  EK= 0.14230E+01 SP= 0.00E+00 SK= 0.00E+00
 bond charge predicted
 prediction of wavefunctions
       N       E                     dE             d eps       ncg     rms          rms(c)
DAV:   1    -0.284538290169E+03    0.47610E-01   -0.23313E-03  2944   0.207E-01    0.313E-02
DAV:   2    -0.284538435038E+03   -0.14487E-03   -0.17281E-03  3168   0.627E-02    0.180E-02
DAV:   3    -0.284538429070E+03    0.59676E-05   -0.22862E-05  3488   0.856E-03    0.112E-02
DAV:   4    -0.284538423748E+03    0.53223E-05   -0.96809E-06  3312   0.559E-03    0.344E-03
DAV:   5    -0.284538423746E+03    0.23665E-08   -0.30183E-06  2112   0.269E-03
     27 T=   164. E= -.28311934E+03 F= -.28453842E+03 E0= -.28453505E+03  EK= 0.14191E+01 SP= 0.00E+00 SK= 0.00E+00
 bond charge predicted
 prediction of wavefunctions
       N       E                     dE             d eps       ncg     rms          rms(c)
DAV:   1    -0.284495600990E+03    0.42823E-01   -0.21993E-03  2976   0.202E-01    0.311E-02
DAV:   2    -0.284495739181E+03   -0.13819E-03   -0.16703E-03  3216   0.619E-02    0.180E-02
DAV:   3    -0.284495733854E+03    0.53274E-05   -0.23353E-05  3456   0.860E-03    0.111E-02
DAV:   4    -0.284495729313E+03    0.45408E-05   -0.92696E-06  3376   0.547E-03    0.359E-03
DAV:   5    -0.284495729448E+03   -0.13552E-06   -0.29614E-06  2048   0.267E-03
     28 T=   166. E= -.28305505E+03 F= -.28449573E+03 E0= -.28449229E+03  EK= 0.14407E+01 SP= 0.00E+00 SK= 0.00E+00
 bond charge predicted
 prediction of wavefunctions
       N       E                     dE             d eps       ncg     rms          rms(c)
DAV:   1    -0.284455948207E+03    0.39781E-01   -0.22296E-03  2944   0.207E-01    0.306E-02
DAV:   2    -0.284456092672E+03   -0.14447E-03   -0.17120E-03  3184   0.622E-02    0.177E-02
DAV:   3    -0.284456086892E+03    0.57805E-05   -0.23345E-05  3456   0.874E-03    0.111E-02
DAV:   4    -0.284456081973E+03    0.49191E-05   -0.10054E-05  3328   0.574E-03    0.357E-03
DAV:   5    -0.284456082068E+03   -0.95552E-07   -0.33137E-06  2160   0.283E-03
     29 T=   165. E= -.28302575E+03 F= -.28445608E+03 E0= -.28445257E+03  EK= 0.14303E+01 SP= 0.00E+00 SK= 0.00E+00
 bond charge predicted
 prediction of wavefunctions
       N       E                     dE             d eps       ncg     rms          rms(c)
DAV:   1    -0.284419626013E+03    0.36456E-01   -0.17928E-03  2960   0.201E-01    0.297E-02
DAV:   2    -0.284419754349E+03   -0.12834E-03   -0.15503E-03  3136   0.591E-02    0.176E-02
DAV:   3    -0.284419747744E+03    0.66045E-05   -0.21586E-05  3488   0.845E-03    0.109E-02
DAV:   4    -0.284419742032E+03    0.57125E-05   -0.10951E-05  3296   0.596E-03    0.326E-03
DAV:   5    -0.284419742036E+03   -0.39299E-08   -0.34171E-06  2112   0.286E-03
     30 T=   159. E= -.28304245E+03 F= -.28441974E+03 E0= -.28441617E+03  EK= 0.13773E+01 SP= 0.00E+00 SK= 0.00E+00
 bond charge predicted
 prediction of wavefunctions
       N       E                     dE             d eps       ncg     rms          rms(c)
DAV:   1    -0.284389127070E+03    0.30615E-01   -0.21484E-03  3024   0.198E-01    0.310E-02
DAV:   2    -0.284389263219E+03   -0.13615E-03   -0.16424E-03  3200   0.611E-02    0.180E-02
DAV:   3    -0.284389257467E+03    0.57525E-05   -0.21584E-05  3504   0.835E-03    0.112E-02
DAV:   4    -0.284389252420E+03    0.50466E-05   -0.10105E-05  3312   0.566E-03    0.333E-03
DAV:   5    -0.284389252527E+03   -0.10690E-06   -0.28755E-06  2032   0.264E-03
     31 T=   160. E= -.28300000E+03 F= -.28438925E+03 E0= -.28438563E+03  EK= 0.13893E+01 SP= 0.00E+00 SK= 0.00E+00
 bond charge predicted
 prediction of wavefunctions
       N       E                     dE             d eps       ncg     rms          rms(c)
DAV:   1    -0.284361757091E+03    0.27495E-01   -0.24999E-03  2992   0.205E-01    0.324E-02
DAV:   2    -0.284361902253E+03   -0.14516E-03   -0.17352E-03  3216   0.631E-02    0.188E-02
DAV:   3    -0.284361895027E+03    0.72266E-05   -0.23220E-05  3440   0.872E-03    0.118E-02
DAV:   4    -0.284361889012E+03    0.60144E-05   -0.11968E-05  3344   0.621E-03    0.332E-03
DAV:   5    -0.284361889140E+03   -0.12725E-06   -0.33769E-06  2176   0.288E-03
     32 T=   165. E= -.28292990E+03 F= -.28436189E+03 E0= -.28435821E+03  EK= 0.14320E+01 SP= 0.00E+00 SK= 0.00E+00
 bond charge predicted
 prediction of wavefunctions
       N       E                     dE             d eps       ncg     rms          rms(c)
DAV:   1    -0.284338356422E+03    0.23533E-01   -0.20282E-03  3008   0.203E-01    0.311E-02
DAV:   2    -0.284338489885E+03   -0.13346E-03   -0.16196E-03  3200   0.610E-02    0.176E-02
DAV:   3    -0.284338483497E+03    0.63883E-05   -0.22094E-05  3472   0.841E-03    0.109E-02
DAV:   4    -0.284338478275E+03    0.52224E-05   -0.10675E-05  3312   0.573E-03    0.316E-03
DAV:   5    -0.284338478444E+03   -0.16939E-06   -0.28232E-06  2000   0.263E-03
     33 T=   169. E= -.28287808E+03 F= -.28433848E+03 E0= -.28433475E+03  EK= 0.14604E+01 SP= 0.00E+00 SK= 0.00E+00
 bond charge predicted
 prediction of wavefunctions
       N       E                     dE             d eps       ncg     rms          rms(c)
DAV:   1    -0.284319963911E+03    0.18514E-01   -0.16956E-03  2944   0.202E-01    0.303E-02
DAV:   2    -0.284320089210E+03   -0.12530E-03   -0.15316E-03  3120   0.595E-02    0.177E-02
DAV:   3    -0.284320082822E+03    0.63884E-05   -0.20775E-05  3488   0.818E-03    0.109E-02
DAV:   4    -0.284320077360E+03    0.54624E-05   -0.10822E-05  3344   0.583E-03    0.300E-03
DAV:   5    -0.284320077515E+03   -0.15565E-06   -0.28608E-06  2032   0.264E-03
     34 T=   171. E= -.28283564E+03 F= -.28432008E+03 E0= -.28431630E+03  EK= 0.14844E+01 SP= 0.00E+00 SK= 0.00E+00
 bond charge predicted
 prediction of wavefunctions
       N       E                     dE             d eps       ncg     rms          rms(c)
DAV:   1    -0.284305504394E+03    0.14573E-01   -0.22911E-03  3008   0.207E-01    0.323E-02
DAV:   2    -0.284305650027E+03   -0.14563E-03   -0.17469E-03  3152   0.631E-02    0.189E-02
DAV:   3    -0.284305642819E+03    0.72086E-05   -0.22916E-05  3472   0.869E-03    0.118E-02
DAV:   4    -0.284305636689E+03    0.61301E-05   -0.12482E-05  3344   0.625E-03    0.335E-03
DAV:   5    -0.284305636811E+03   -0.12183E-06   -0.34256E-06  2128   0.289E-03
     35 T=   175. E= -.28279216E+03 F= -.28430564E+03 E0= -.28430180E+03  EK= 0.15135E+01 SP= 0.00E+00 SK= 0.00E+00
 bond charge predicted
 prediction of wavefunctions
       N       E                     dE             d eps       ncg     rms          rms(c)
DAV:   1    -0.284296764695E+03    0.88720E-02   -0.24237E-03  3008   0.210E-01    0.337E-02
DAV:   2    -0.284296909185E+03   -0.14449E-03   -0.18074E-03  3184   0.639E-02    0.195E-02
DAV:   3    -0.284296901180E+03    0.80052E-05   -0.25948E-05  3472   0.915E-03    0.119E-02
DAV:   4    -0.284296894572E+03    0.66079E-05   -0.12739E-05  3280   0.627E-03    0.339E-03
DAV:   5    -0.284296894659E+03   -0.86862E-07   -0.33757E-06  2192   0.287E-03
     36 T=   175. E= -.28278227E+03 F= -.28429689E+03 E0= -.28429304E+03  EK= 0.15146E+01 SP= 0.00E+00 SK= 0.00E+00
 bond charge predicted
 prediction of wavefunctions
       N       E                     dE             d eps       ncg     rms          rms(c)
DAV:   1    -0.284292990607E+03    0.39040E-02   -0.17823E-03  2944   0.203E-01    0.307E-02
DAV:   2    -0.284293115866E+03   -0.12526E-03   -0.15534E-03  3104   0.594E-02    0.179E-02
DAV:   3    -0.284293109152E+03    0.67148E-05   -0.21925E-05  3552   0.836E-03    0.110E-02
DAV:   4    -0.284293103728E+03    0.54241E-05   -0.11556E-05  3296   0.593E-03    0.303E-03
DAV:   5    -0.284293103992E+03   -0.26462E-06   -0.28634E-06  2032   0.264E-03
     37 T=   171. E= -.28280997E+03 F= -.28429310E+03 E0= -.28428923E+03  EK= 0.14831E+01 SP= 0.00E+00 SK= 0.00E+00
 bond charge predicted
 prediction of wavefunctions
       N       E                     dE             d eps       ncg     rms          rms(c)
DAV:   1    -0.284296428184E+03   -0.33245E-02   -0.26225E-03  3008   0.211E-01    0.338E-02
DAV:   2    -0.284296579609E+03   -0.15143E-03   -0.18425E-03  3152   0.646E-02    0.189E-02
DAV:   3    -0.284296572524E+03    0.70849E-05   -0.25292E-05  3472   0.905E-03    0.116E-02
DAV:   4    -0.284296566789E+03    0.57349E-05   -0.11913E-05  3312   0.614E-03    0.331E-03
DAV:   5    -0.284296567000E+03   -0.21052E-06   -0.32685E-06  2096   0.283E-03
     38 T=   168. E= -.28284332E+03 F= -.28429657E+03 E0= -.28429268E+03  EK= 0.14532E+01 SP= 0.00E+00 SK= 0.00E+00
 bond charge predicted
 prediction of wavefunctions
       N       E                     dE             d eps       ncg     rms          rms(c)
DAV:   1    -0.284302258731E+03   -0.56919E-02   -0.18827E-03  2992   0.201E-01    0.309E-02
DAV:   2    -0.284302389069E+03   -0.13034E-03   -0.15988E-03  3152   0.600E-02    0.181E-02
DAV:   3    -0.284302382971E+03    0.60988E-05   -0.21724E-05  3472   0.837E-03    0.111E-02
DAV:   4    -0.284302377789E+03    0.51813E-05   -0.10499E-05  3328   0.568E-03    0.328E-03
DAV:   5    -0.284302377931E+03   -0.14168E-06   -0.28349E-06  2128   0.260E-03
     39 T=   168. E= -.28284740E+03 F= -.28430238E+03 E0= -.28429849E+03  EK= 0.14550E+01 SP= 0.00E+00 SK= 0.00E+00
 bond charge predicted
 prediction of wavefunctions
       N       E                     dE             d eps       ncg     rms          rms(c)
DAV:   1    -0.284312039059E+03   -0.96613E-02   -0.23565E-03  3072   0.215E-01    0.333E-02
DAV:   2    -0.284312187252E+03   -0.14819E-03   -0.18140E-03  3168   0.644E-02    0.185E-02
DAV:   3    -0.284312179761E+03    0.74917E-05   -0.25415E-05  3504   0.910E-03    0.114E-02
DAV:   4    -0.284312173900E+03    0.58610E-05   -0.12469E-05  3264   0.614E-03    0.336E-03
DAV:   5    -0.284312174073E+03   -0.17317E-06   -0.32251E-06  2176   0.280E-03
     40 T=   174. E= -.28280460E+03 F= -.28431217E+03 E0= -.28430829E+03  EK= 0.15076E+01 SP= 0.00E+00 SK= 0.00E+00
 bond charge predicted
 prediction of wavefunctions
       N       E                     dE             d eps       ncg     rms          rms(c)
DAV:   1    -0.284324744687E+03   -0.12571E-01   -0.19233E-03  2992   0.216E-01    0.321E-02
DAV:   2    -0.284324883915E+03   -0.13923E-03   -0.17303E-03  3168   0.624E-02    0.184E-02
DAV:   3    -0.284324876980E+03    0.69355E-05   -0.24414E-05  3456   0.881E-03    0.112E-02
DAV:   4    -0.284324871214E+03    0.57655E-05   -0.11682E-05  3296   0.599E-03    0.320E-03
DAV:   5    -0.284324871404E+03   -0.18951E-06   -0.31064E-06  2112   0.273E-03
     41 T=   176. E= -.28280174E+03 F= -.28432487E+03 E0= -.28432101E+03  EK= 0.15231E+01 SP= 0.00E+00 SK= 0.00E+00
 bond charge predicted
 prediction of wavefunctions
       N       E                     dE             d eps       ncg     rms          rms(c)
DAV:   1    -0.284339335370E+03   -0.14464E-01   -0.20117E-03  2928   0.214E-01    0.316E-02
DAV:   2    -0.284339481255E+03   -0.14588E-03   -0.17567E-03  3152   0.630E-02    0.188E-02
DAV:   3    -0.284339474715E+03    0.65395E-05   -0.23398E-05  3456   0.868E-03    0.117E-02
DAV:   4    -0.284339468946E+03    0.57695E-05   -0.11593E-05  3328   0.611E-03    0.335E-03
DAV:   5    -0.284339469156E+03   -0.21006E-06   -0.33701E-06  2160   0.285E-03
     42 T=   178. E= -.28279434E+03 F= -.28433947E+03 E0= -.28433561E+03  EK= 0.15451E+01 SP= 0.00E+00 SK= 0.00E+00
 bond charge predicted
 prediction of wavefunctions
       N       E                     dE             d eps       ncg     rms          rms(c)
DAV:   1    -0.284357781641E+03   -0.18313E-01   -0.20382E-03  2976   0.223E-01    0.318E-02
DAV:   2    -0.284357930942E+03   -0.14930E-03   -0.18130E-03  3120   0.638E-02    0.178E-02
DAV:   3    -0.284357924920E+03    0.60224E-05   -0.24895E-05  3472   0.899E-03    0.109E-02
DAV:   4    -0.284357919996E+03    0.49236E-05   -0.10329E-05  3312   0.577E-03    0.336E-03
DAV:   5    -0.284357920232E+03   -0.23604E-06   -0.31664E-06  2096   0.275E-03
     43 T=   183. E= -.28277159E+03 F= -.28435792E+03 E0= -.28435407E+03  EK= 0.15863E+01 SP= 0.00E+00 SK= 0.00E+00
 bond charge predicted
 prediction of wavefunctions
       N       E                     dE             d eps       ncg     rms          rms(c)
DAV:   1    -0.284377777336E+03   -0.19857E-01   -0.14825E-03  2912   0.221E-01    0.305E-02
DAV:   2    -0.284377910542E+03   -0.13321E-03   -0.16342E-03  3104   0.611E-02    0.179E-02
DAV:   3    -0.284377903991E+03    0.65504E-05   -0.23012E-05  3488   0.856E-03    0.110E-02
DAV:   4    -0.284377898092E+03    0.58992E-05   -0.11021E-05  3312   0.595E-03    0.308E-03
DAV:   5    -0.284377898203E+03   -0.11083E-06   -0.32447E-06  2048   0.279E-03
     44 T=   188. E= -.28275052E+03 F= -.28437790E+03 E0= -.28437406E+03  EK= 0.16274E+01 SP= 0.00E+00 SK= 0.00E+00
 bond charge predicted
 prediction of wavefunctions
       N       E                     dE             d eps       ncg     rms          rms(c)
DAV:   1    -0.284399622574E+03   -0.21724E-01   -0.25097E-03  2960   0.238E-01    0.340E-02
DAV:   2    -0.284399800756E+03   -0.17818E-03   -0.21261E-03  3152   0.691E-02    0.191E-02
DAV:   3    -0.284399794629E+03    0.61275E-05   -0.28412E-05  3456   0.960E-03    0.118E-02
DAV:   4    -0.284399789373E+03    0.52564E-05   -0.11015E-05  3376   0.594E-03    0.386E-03
DAV:   5    -0.284399789573E+03   -0.20049E-06   -0.35494E-06  2192   0.290E-03
     45 T=   193. E= -.28272415E+03 F= -.28439979E+03 E0= -.28439597E+03  EK= 0.16756E+01 SP= 0.00E+00 SK= 0.00E+00
 bond charge predicted
 prediction of wavefunctions
       N       E                     dE             d eps       ncg     rms          rms(c)
DAV:   1    -0.284423196035E+03   -0.23407E-01   -0.17204E-03  2944   0.232E-01    0.318E-02
DAV:   2    -0.284423350990E+03   -0.15495E-03   -0.18708E-03  3120   0.650E-02    0.190E-02
DAV:   3    -0.284423344176E+03    0.68145E-05   -0.25602E-05  3440   0.907E-03    0.118E-02
DAV:   4    -0.284423337986E+03    0.61898E-05   -0.12188E-05  3344   0.625E-03    0.351E-03
DAV:   5    -0.284423338112E+03   -0.12586E-06   -0.38078E-06  2272   0.298E-03
     46 T=   195. E= -.28273871E+03 F= -.28442334E+03 E0= -.28441952E+03  EK= 0.16846E+01 SP= 0.00E+00 SK= 0.00E+00
 bond charge predicted
 prediction of wavefunctions
       N       E                     dE             d eps       ncg     rms          rms(c)
DAV:   1    -0.284448597008E+03   -0.25259E-01   -0.19801E-03  3008   0.236E-01    0.323E-02
DAV:   2    -0.284448757860E+03   -0.16085E-03   -0.19329E-03  3136   0.661E-02    0.191E-02
DAV:   3    -0.284448750891E+03    0.69689E-05   -0.26519E-05  3488   0.925E-03    0.118E-02
DAV:   4    -0.284448744810E+03    0.60814E-05   -0.12794E-05  3376   0.644E-03    0.356E-03
DAV:   5    -0.284448745031E+03   -0.22139E-06   -0.40164E-06  2336   0.307E-03
     47 T=   193. E= -.28277651E+03 F= -.28444875E+03 E0= -.28444493E+03  EK= 0.16722E+01 SP= 0.00E+00 SK= 0.00E+00
 bond charge predicted
 prediction of wavefunctions
       N       E                     dE             d eps       ncg     rms          rms(c)
DAV:   1    -0.284474391780E+03   -0.25647E-01   -0.19080E-03  3024   0.234E-01    0.320E-02
DAV:   2    -0.284474551092E+03   -0.15931E-03   -0.19056E-03  3104   0.658E-02    0.185E-02
DAV:   3    -0.284474545056E+03    0.60364E-05   -0.24973E-05  3504   0.890E-03    0.115E-02
DAV:   4    -0.284474539542E+03    0.55138E-05   -0.10595E-05  3264   0.578E-03    0.350E-03
DAV:   5    -0.284474539672E+03   -0.13021E-06   -0.32519E-06  2112   0.277E-03
     48 T=   196. E= -.28277895E+03 F= -.28447454E+03 E0= -.28447072E+03  EK= 0.16956E+01 SP= 0.00E+00 SK= 0.00E+00
 bond charge predicted
 prediction of wavefunctions
       N       E                     dE             d eps       ncg     rms          rms(c)
DAV:   1    -0.284502922892E+03   -0.28383E-01   -0.18539E-03  2992   0.242E-01    0.319E-02
DAV:   2    -0.284503082278E+03   -0.15939E-03   -0.19367E-03  3136   0.663E-02    0.179E-02
DAV:   3    -0.284503076801E+03    0.54772E-05   -0.27224E-05  3520   0.929E-03    0.109E-02
DAV:   4    -0.284503071938E+03    0.48633E-05   -0.95618E-06  3248   0.560E-03    0.366E-03
DAV:   5    -0.284503072091E+03   -0.15283E-06   -0.34116E-06  2256   0.282E-03
     49 T=   204. E= -.28273820E+03 F= -.28450307E+03 E0= -.28449924E+03  EK= 0.17649E+01 SP= 0.00E+00 SK= 0.00E+00
 bond charge predicted
 prediction of wavefunctions
       N       E                     dE             d eps       ncg     rms          rms(c)
DAV:   1    -0.284532241568E+03   -0.29170E-01   -0.21766E-03  3120   0.254E-01    0.328E-02
DAV:   2    -0.284532421864E+03   -0.18030E-03   -0.21296E-03  3120   0.692E-02    0.188E-02
DAV:   3    -0.284532415184E+03    0.66797E-05   -0.28801E-05  3456   0.970E-03    0.116E-02
DAV:   4    -0.284532409576E+03    0.56083E-05   -0.12427E-05  3312   0.628E-03    0.397E-03
DAV:   5    -0.284532409732E+03   -0.15598E-06   -0.41879E-06  2368   0.311E-03
     50 T=   209. E= -.28272583E+03 F= -.28453241E+03 E0= -.28452855E+03  EK= 0.18066E+01 SP= 0.00E+00 SK= 0.00E+00
 bond charge predicted
 prediction of wavefunctions
       N       E                     dE             d eps       ncg     rms          rms(c)
DAV:   1    -0.284565366510E+03   -0.32957E-01   -0.21961E-03  2976   0.255E-01    0.333E-02
DAV:   2    -0.284565550212E+03   -0.18370E-03   -0.21884E-03  3120   0.699E-02    0.198E-02
DAV:   3    -0.284565543237E+03    0.69751E-05   -0.29391E-05  3472   0.969E-03    0.122E-02
DAV:   4    -0.284565536691E+03    0.65460E-05   -0.12439E-05  3360   0.633E-03    0.397E-03
DAV:   5    -0.284565536677E+03    0.13725E-07   -0.42731E-06  2352   0.313E-03
     51 T=   212. E= -.28272711E+03 F= -.28456554E+03 E0= -.28456163E+03  EK= 0.18384E+01 SP= 0.00E+00 SK= 0.00E+00
 bond charge predicted
 prediction of wavefunctions
       N       E                     dE             d eps       ncg     rms          rms(c)
DAV:   1    -0.284596519215E+03   -0.30983E-01   -0.24713E-03  3056   0.266E-01    0.337E-02
DAV:   2    -0.284596712989E+03   -0.19377E-03   -0.22832E-03  3088   0.720E-02    0.190E-02
DAV:   3    -0.284596706888E+03    0.61015E-05   -0.30291E-05  3552   0.989E-03    0.117E-02
DAV:   4    -0.284596701429E+03    0.54588E-05   -0.10932E-05  3296   0.598E-03    0.417E-03
DAV:   5    -0.284596701488E+03   -0.59015E-07   -0.39896E-06  2384   0.305E-03
     52 T=   217. E= -.28271556E+03 F= -.28459670E+03 E0= -.28459274E+03  EK= 0.18811E+01 SP= 0.00E+00 SK= 0.00E+00
 bond charge predicted
 prediction of wavefunctions
       N       E                     dE             d eps       ncg     rms          rms(c)
DAV:   1    -0.284630322662E+03   -0.33621E-01   -0.20382E-03  2992   0.265E-01    0.328E-02
DAV:   2    -0.284630506365E+03   -0.18370E-03   -0.21794E-03  3056   0.699E-02    0.197E-02
DAV:   3    -0.284630499567E+03    0.67984E-05   -0.29192E-05  3568   0.974E-03    0.121E-02
DAV:   4    -0.284630492925E+03    0.66419E-05   -0.12260E-05  3296   0.647E-03    0.400E-03
DAV:   5    -0.284630492913E+03    0.11673E-07   -0.46184E-06  2512   0.326E-03
     53 T=   221. E= -.28271958E+03 F= -.28463049E+03 E0= -.28462645E+03  EK= 0.19109E+01 SP= 0.00E+00 SK= 0.00E+00
 bond charge predicted
 prediction of wavefunctions
       N       E                     dE             d eps       ncg     rms          rms(c)
DAV:   1    -0.284661394684E+03   -0.30902E-01   -0.17521E-03  3024   0.265E-01    0.319E-02
DAV:   2    -0.284661569467E+03   -0.17478E-03   -0.20889E-03  3120   0.680E-02    0.195E-02
DAV:   3    -0.284661562589E+03    0.68781E-05   -0.28803E-05  3440   0.962E-03    0.121E-02
DAV:   4    -0.284661556034E+03    0.65553E-05   -0.12099E-05  3312   0.632E-03    0.413E-03
DAV:   5    -0.284661555998E+03    0.35951E-07   -0.46225E-06  2528   0.323E-03
     54 T=   221. E= -.28274725E+03 F= -.28466156E+03 E0= -.28465744E+03  EK= 0.19143E+01 SP= 0.00E+00 SK= 0.00E+00
 bond charge predicted
 prediction of wavefunctions
       N       E                     dE             d eps       ncg     rms          rms(c)
DAV:   1    -0.284690438998E+03   -0.28883E-01   -0.21508E-03  3024   0.265E-01    0.339E-02
DAV:   2    -0.284690634100E+03   -0.19510E-03   -0.23105E-03  3152   0.717E-02    0.207E-02
DAV:   3    -0.284690626227E+03    0.78726E-05   -0.30372E-05  3456   0.988E-03    0.129E-02
DAV:   4    -0.284690618590E+03    0.76369E-05   -0.13956E-05  3280   0.669E-03    0.415E-03
DAV:   5    -0.284690618531E+03    0.59145E-07   -0.48380E-06  2656   0.330E-03
     55 T=   219. E= -.28279716E+03 F= -.28469062E+03 E0= -.28468642E+03  EK= 0.18935E+01 SP= 0.00E+00 SK= 0.00E+00
 bond charge predicted
 prediction of wavefunctions
       N       E                     dE             d eps       ncg     rms          rms(c)
DAV:   1    -0.284717691138E+03   -0.27073E-01   -0.21523E-03  2944   0.262E-01    0.345E-02
DAV:   2    -0.284717882127E+03   -0.19099E-03   -0.22819E-03  3104   0.721E-02    0.204E-02
DAV:   3    -0.284717875328E+03    0.67989E-05   -0.30421E-05  3520   0.987E-03    0.125E-02
DAV:   4    -0.284717868817E+03    0.65102E-05   -0.12085E-05  3312   0.625E-03    0.415E-03
DAV:   5    -0.284717868802E+03    0.15208E-07   -0.41926E-06  2400   0.312E-03
     56 T=   222. E= -.28279340E+03 F= -.28471787E+03 E0= -.28471359E+03  EK= 0.19245E+01 SP= 0.00E+00 SK= 0.00E+00
 bond charge predicted
 prediction of wavefunctions
       N       E                     dE             d eps       ncg     rms          rms(c)
DAV:   1    -0.284743607868E+03   -0.25739E-01   -0.19105E-03  3008   0.266E-01    0.334E-02
DAV:   2    -0.284743788851E+03   -0.18098E-03   -0.21914E-03  3136   0.698E-02    0.203E-02
DAV:   3    -0.284743780527E+03    0.83240E-05   -0.29970E-05  3472   0.976E-03    0.126E-02
DAV:   4    -0.284743772727E+03    0.77998E-05   -0.14955E-05  3296   0.674E-03    0.369E-03
DAV:   5    -0.284743772800E+03   -0.73086E-07   -0.43768E-06  2416   0.316E-03
     57 T=   230. E= -.28275562E+03 F= -.28474377E+03 E0= -.28473944E+03  EK= 0.19882E+01 SP= 0.00E+00 SK= 0.00E+00
 bond charge predicted
 prediction of wavefunctions
       N       E                     dE             d eps       ncg     rms          rms(c)
DAV:   1    -0.284766592202E+03   -0.22819E-01   -0.14206E-03  2944   0.263E-01    0.317E-02
DAV:   2    -0.284766752900E+03   -0.16070E-03   -0.19533E-03  3072   0.662E-02    0.197E-02
DAV:   3    -0.284766745216E+03    0.76847E-05   -0.26296E-05  3520   0.921E-03    0.122E-02
DAV:   4    -0.284766737960E+03    0.72555E-05   -0.14346E-05  3216   0.677E-03    0.349E-03
DAV:   5    -0.284766738146E+03   -0.18557E-06   -0.44353E-06  2512   0.320E-03
     58 T=   235. E= -.28273203E+03 F= -.28476674E+03 E0= -.28476238E+03  EK= 0.20347E+01 SP= 0.00E+00 SK= 0.00E+00
 bond charge predicted
 prediction of wavefunctions
       N       E                     dE             d eps       ncg     rms          rms(c)
DAV:   1    -0.284787390979E+03   -0.20653E-01   -0.17895E-03  3056   0.273E-01    0.331E-02
DAV:   2    -0.284787576062E+03   -0.18508E-03   -0.22235E-03  3104   0.697E-02    0.205E-02
DAV:   3    -0.284787567899E+03    0.81627E-05   -0.30706E-05  3504   0.990E-03    0.128E-02
DAV:   4    -0.284787560492E+03    0.74070E-05   -0.14867E-05  3248   0.685E-03    0.403E-03
DAV:   5    -0.284787560671E+03   -0.17937E-06   -0.50050E-06  2752   0.336E-03
     59 T=   239. E= -.28271393E+03 F= -.28478756E+03 E0= -.28478321E+03  EK= 0.20736E+01 SP= 0.00E+00 SK= 0.00E+00
 bond charge predicted
 prediction of wavefunctions
       N       E                     dE             d eps       ncg     rms          rms(c)
DAV:   1    -0.284806460501E+03   -0.18900E-01   -0.16407E-03  2928   0.275E-01    0.324E-02
DAV:   2    -0.284806640580E+03   -0.18008E-03   -0.21591E-03  3104   0.691E-02    0.196E-02
DAV:   3    -0.284806633792E+03    0.67873E-05   -0.29632E-05  3520   0.972E-03    0.121E-02
DAV:   4    -0.284806627399E+03    0.63933E-05   -0.12728E-05  3296   0.645E-03    0.396E-03
DAV:   5    -0.284806627592E+03   -0.19347E-06   -0.46520E-06  2576   0.325E-03
     60 T=   242. E= -.28270932E+03 F= -.28480663E+03 E0= -.28480232E+03  EK= 0.20973E+01 SP= 0.00E+00 SK= 0.00E+00
 bond charge predicted
 prediction of wavefunctions
       N       E                     dE             d eps       ncg     rms          rms(c)
DAV:   1    -0.284822593408E+03   -0.15966E-01   -0.15267E-03  2960   0.275E-01    0.323E-02
DAV:   2    -0.284822771496E+03   -0.17809E-03   -0.21498E-03  3040   0.689E-02    0.203E-02
DAV:   3    -0.284822763698E+03    0.77985E-05   -0.29482E-05  3520   0.970E-03    0.126E-02
DAV:   4    -0.284822756258E+03    0.74391E-05   -0.15156E-05  3248   0.687E-03    0.386E-03
DAV:   5    -0.284822756415E+03   -0.15652E-06   -0.48768E-06  2704   0.330E-03
     61 T=   246. E= -.28268859E+03 F= -.28482276E+03 E0= -.28481851E+03  EK= 0.21342E+01 SP= 0.00E+00 SK= 0.00E+00
 bond charge predicted
 prediction of wavefunctions
       N       E                     dE             d eps       ncg     rms          rms(c)
DAV:   1    -0.284837440639E+03   -0.14684E-01   -0.16877E-03  3024   0.282E-01    0.336E-02
DAV:   2    -0.284837631467E+03   -0.19083E-03   -0.22852E-03  3120   0.717E-02    0.200E-02
DAV:   3    -0.284837623730E+03    0.77364E-05   -0.30643E-05  3488   0.989E-03    0.125E-02
DAV:   4    -0.284837616540E+03    0.71908E-05   -0.14100E-05  3296   0.671E-03    0.389E-03
DAV:   5    -0.284837616738E+03   -0.19865E-06   -0.47501E-06  2576   0.329E-03
     62 T=   251. E= -.28266039E+03 F= -.28483762E+03 E0= -.28483345E+03  EK= 0.21772E+01 SP= 0.00E+00 SK= 0.00E+00
 bond charge predicted
 prediction of wavefunctions
       N       E                     dE             d eps       ncg     rms          rms(c)
DAV:   1    -0.284847588665E+03   -0.99721E-02   -0.15048E-03  3152   0.283E-01    0.324E-02
DAV:   2    -0.284847769202E+03   -0.18054E-03   -0.21799E-03  3088   0.690E-02    0.201E-02
DAV:   3    -0.284847761266E+03    0.79359E-05   -0.31048E-05  3456   0.101E-02    0.124E-02
DAV:   4    -0.284847754075E+03    0.71916E-05   -0.14816E-05  3312   0.700E-03    0.414E-03
DAV:   5    -0.284847754235E+03   -0.16056E-06   -0.56232E-06  2832   0.355E-03
     63 T=   255. E= -.28263814E+03 F= -.28484775E+03 E0= -.28484365E+03  EK= 0.22096E+01 SP= 0.00E+00 SK= 0.00E+00
 bond charge predicted
 prediction of wavefunctions
       N       E                     dE             d eps       ncg     rms          rms(c)
DAV:   1    -0.284852353845E+03   -0.45998E-02   -0.16846E-03  3104   0.289E-01    0.335E-02
DAV:   2    -0.284852553090E+03   -0.19925E-03   -0.23819E-03  3040   0.727E-02    0.202E-02
DAV:   3    -0.284852545626E+03    0.74644E-05   -0.32059E-05  3520   0.101E-02    0.125E-02
DAV:   4    -0.284852538780E+03    0.68460E-05   -0.13958E-05  3216   0.662E-03    0.415E-03
DAV:   5    -0.284852538974E+03   -0.19443E-06   -0.48694E-06  2688   0.330E-03
     64 T=   251. E= -.28267888E+03 F= -.28485254E+03 E0= -.28484852E+03  EK= 0.21737E+01 SP= 0.00E+00 SK= 0.00E+00
 bond charge predicted
 prediction of wavefunctions
       N       E                     dE             d eps       ncg     rms          rms(c)
DAV:   1    -0.284855444055E+03   -0.29053E-02   -0.20139E-03  2992   0.285E-01    0.354E-02
DAV:   2    -0.284855656589E+03   -0.21253E-03   -0.25521E-03  3120   0.753E-02    0.214E-02
DAV:   3    -0.284855648624E+03    0.79648E-05   -0.35717E-05  3456   0.107E-02    0.131E-02
DAV:   4    -0.284855640942E+03    0.76822E-05   -0.14373E-05  3296   0.686E-03    0.448E-03
DAV:   5    -0.284855640881E+03    0.60920E-07   -0.54555E-06  2816   0.350E-03
     65 T=   244. E= -.28273898E+03 F= -.28485564E+03 E0= -.28485171E+03  EK= 0.21167E+01 SP= 0.00E+00 SK= 0.00E+00
 bond charge predicted
 prediction of wavefunctions
       N       E                     dE             d eps       ncg     rms          rms(c)
DAV:   1    -0.284856511482E+03   -0.87054E-03   -0.18924E-03  3040   0.282E-01    0.350E-02
DAV:   2    -0.284856714818E+03   -0.20334E-03   -0.24640E-03  3056   0.732E-02    0.221E-02
DAV:   3    -0.284856705431E+03    0.93875E-05   -0.34294E-05  3520   0.104E-02    0.137E-02
DAV:   4    -0.284856696416E+03    0.90146E-05   -0.17023E-05  3216   0.724E-03    0.426E-03
DAV:   5    -0.284856696417E+03   -0.95042E-09   -0.56231E-06  2912   0.353E-03
     66 T=   241. E= -.28276604E+03 F= -.28485670E+03 E0= -.28485284E+03  EK= 0.20907E+01 SP= 0.00E+00 SK= 0.00E+00
 bond charge predicted
 prediction of wavefunctions
       N       E                     dE             d eps       ncg     rms          rms(c)
DAV:   1    -0.284855007793E+03    0.16886E-02   -0.19375E-03  3008   0.281E-01    0.351E-02
DAV:   2    -0.284855217511E+03   -0.20972E-03   -0.25039E-03  3088   0.749E-02    0.208E-02
DAV:   3    -0.284855210688E+03    0.68230E-05   -0.33561E-05  3536   0.104E-02    0.127E-02
DAV:   4    -0.284855204314E+03    0.63741E-05   -0.13060E-05  3296   0.651E-03    0.451E-03
DAV:   5    -0.284855204465E+03   -0.15084E-06   -0.48263E-06  2656   0.332E-03
     67 T=   239. E= -.28278215E+03 F= -.28485520E+03 E0= -.28485140E+03  EK= 0.20731E+01 SP= 0.00E+00 SK= 0.00E+00
 bond charge predicted
 prediction of wavefunctions
       N       E                     dE             d eps       ncg     rms          rms(c)
DAV:   1    -0.284849686313E+03    0.55180E-02   -0.12014E-03  2992   0.274E-01    0.314E-02
DAV:   2    -0.284849855648E+03   -0.16933E-03   -0.20338E-03  3104   0.673E-02    0.195E-02
DAV:   3    -0.284849848702E+03    0.69459E-05   -0.27474E-05  3472   0.936E-03    0.122E-02
DAV:   4    -0.284849842050E+03    0.66518E-05   -0.13183E-05  3280   0.652E-03    0.386E-03
DAV:   5    -0.284849842228E+03   -0.17787E-06   -0.46024E-06  2528   0.322E-03
     68 T=   241. E= -.28276072E+03 F= -.28484984E+03 E0= -.28484606E+03  EK= 0.20891E+01 SP= 0.00E+00 SK= 0.00E+00
 bond charge predicted
 prediction of wavefunctions
       N       E                     dE             d eps       ncg     rms          rms(c)
DAV:   1    -0.284841485448E+03    0.83566E-02   -0.14998E-03  3024   0.276E-01    0.337E-02
DAV:   2    -0.284841668760E+03   -0.18331E-03   -0.22298E-03  3056   0.708E-02    0.208E-02
DAV:   3    -0.284841660412E+03    0.83474E-05   -0.30982E-05  3536   0.995E-03    0.129E-02
DAV:   4    -0.284841652408E+03    0.80044E-05   -0.15262E-05  3328   0.697E-03    0.390E-03
DAV:   5    -0.284841652462E+03   -0.53842E-07   -0.49573E-06  2624   0.337E-03
     69 T=   243. E= -.28274067E+03 F= -.28484165E+03 E0= -.28483789E+03  EK= 0.21010E+01 SP= 0.00E+00 SK= 0.00E+00
 bond charge predicted
 prediction of wavefunctions
       N       E                     dE             d eps       ncg     rms          rms(c)
DAV:   1    -0.284828856826E+03    0.12796E-01   -0.14519E-03  3008   0.275E-01    0.326E-02
DAV:   2    -0.284829036651E+03   -0.17982E-03   -0.21847E-03  3120   0.696E-02    0.200E-02
DAV:   3    -0.284829029456E+03    0.71948E-05   -0.31023E-05  3504   0.996E-03    0.122E-02
DAV:   4    -0.284829022850E+03    0.66057E-05   -0.13411E-05  3232   0.652E-03    0.413E-03
DAV:   5    -0.284829022997E+03   -0.14669E-06   -0.48192E-06  2720   0.330E-03
     70 T=   239. E= -.28275670E+03 F= -.28482902E+03 E0= -.28482525E+03  EK= 0.20723E+01 SP= 0.00E+00 SK= 0.00E+00
 bond charge predicted
 prediction of wavefunctions
       N       E                     dE             d eps       ncg     rms          rms(c)
DAV:   1    -0.284815989437E+03    0.13033E-01   -0.19607E-03  2976   0.277E-01    0.358E-02
DAV:   2    -0.284816190713E+03   -0.20128E-03   -0.24217E-03  3120   0.735E-02    0.220E-02
DAV:   3    -0.284816180668E+03    0.10045E-04   -0.32835E-05  3488   0.103E-02    0.138E-02
DAV:   4    -0.284816171239E+03    0.94290E-05   -0.17734E-05  3296   0.744E-03    0.397E-03
DAV:   5    -0.284816171272E+03   -0.33257E-07   -0.53312E-06  2720   0.351E-03
     71 T=   239. E= -.28274708E+03 F= -.28481617E+03 E0= -.28481239E+03  EK= 0.20691E+01 SP= 0.00E+00 SK= 0.00E+00
 bond charge predicted
 prediction of wavefunctions
       N       E                     dE             d eps       ncg     rms          rms(c)
DAV:   1    -0.284801459434E+03    0.14712E-01   -0.16128E-03  2960   0.275E-01    0.342E-02
DAV:   2    -0.284801649421E+03   -0.18999E-03   -0.23037E-03  3120   0.710E-02    0.209E-02
DAV:   3    -0.284801641554E+03    0.78675E-05   -0.31748E-05  3456   0.101E-02    0.129E-02
DAV:   4    -0.284801634429E+03    0.71244E-05   -0.15071E-05  3312   0.700E-03    0.412E-03
DAV:   5    -0.284801634721E+03   -0.29199E-06   -0.53158E-06  2720   0.346E-03
     72 T=   235. E= -.28276413E+03 F= -.28480163E+03 E0= -.28479783E+03  EK= 0.20375E+01 SP= 0.00E+00 SK= 0.00E+00
 bond charge predicted
 prediction of wavefunctions
       N       E                     dE             d eps       ncg     rms          rms(c)
DAV:   1    -0.284785295418E+03    0.16339E-01   -0.20105E-03  2944   0.270E-01    0.349E-02
DAV:   2    -0.284785502430E+03   -0.20701E-03   -0.24719E-03  3168   0.733E-02    0.217E-02
DAV:   3    -0.284785493999E+03    0.84309E-05   -0.33611E-05  3456   0.104E-02    0.135E-02
DAV:   4    -0.284785486162E+03    0.78373E-05   -0.16029E-05  3248   0.705E-03    0.445E-03
DAV:   5    -0.284785486261E+03   -0.98863E-07   -0.55190E-06  2976   0.349E-03
     73 T=   234. E= -.28275565E+03 F= -.28478549E+03 E0= -.28478165E+03  EK= 0.20298E+01 SP= 0.00E+00 SK= 0.00E+00
 bond charge predicted
 prediction of wavefunctions
       N       E                     dE             d eps       ncg     rms          rms(c)
DAV:   1    -0.284766772717E+03    0.18713E-01   -0.15039E-03  2960   0.269E-01    0.341E-02
DAV:   2    -0.284766947865E+03   -0.17515E-03   -0.21640E-03  3072   0.694E-02    0.215E-02
DAV:   3    -0.284766938323E+03    0.95421E-05   -0.30032E-05  3504   0.988E-03    0.134E-02
DAV:   4    -0.284766929393E+03    0.89300E-05   -0.17638E-05  3280   0.749E-03    0.374E-03
DAV:   5    -0.284766929531E+03   -0.13845E-06   -0.52754E-06  2736   0.351E-03
     74 T=   237. E= -.28271062E+03 F= -.28476693E+03 E0= -.28476306E+03  EK= 0.20563E+01 SP= 0.00E+00 SK= 0.00E+00
 bond charge predicted
 prediction of wavefunctions
       N       E                     dE             d eps       ncg     rms          rms(c)
DAV:   1    -0.284748987409E+03    0.17942E-01   -0.20576E-03  2928   0.273E-01    0.365E-02
DAV:   2    -0.284749185848E+03   -0.19844E-03   -0.24258E-03  3152   0.739E-02    0.218E-02
DAV:   3    -0.284749176445E+03    0.94029E-05   -0.34334E-05  3520   0.104E-02    0.135E-02
DAV:   4    -0.284749167930E+03    0.85146E-05   -0.15907E-05  3200   0.703E-03    0.408E-03
DAV:   5    -0.284749168041E+03   -0.11078E-06   -0.48007E-06  2688   0.335E-03
     75 T=   242. E= -.28265197E+03 F= -.28474917E+03 E0= -.28474528E+03  EK= 0.20972E+01 SP= 0.00E+00 SK= 0.00E+00
 bond charge predicted
 prediction of wavefunctions
       N       E                     dE             d eps       ncg     rms          rms(c)
DAV:   1    -0.284727676119E+03    0.21492E-01   -0.16953E-03  3056   0.276E-01    0.349E-02
DAV:   2    -0.284727857099E+03   -0.18098E-03   -0.22283E-03  3088   0.706E-02    0.209E-02
DAV:   3    -0.284727847867E+03    0.92319E-05   -0.31291E-05  3504   0.100E-02    0.129E-02
DAV:   4    -0.284727839844E+03    0.80230E-05   -0.16353E-05  3264   0.718E-03    0.372E-03
DAV:   5    -0.284727840114E+03   -0.26997E-06   -0.49661E-06  2608   0.338E-03
     76 T=   244. E= -.28261449E+03 F= -.28472784E+03 E0= -.28472392E+03  EK= 0.21134E+01 SP= 0.00E+00 SK= 0.00E+00
 bond charge predicted
 prediction of wavefunctions
       N       E                     dE             d eps       ncg     rms          rms(c)
DAV:   1    -0.284705595603E+03    0.22244E-01   -0.18474E-03  2944   0.274E-01    0.355E-02
DAV:   2    -0.284705790274E+03   -0.19467E-03   -0.23729E-03  3152   0.729E-02    0.212E-02
DAV:   3    -0.284705782301E+03    0.79730E-05   -0.32420E-05  3424   0.102E-02    0.130E-02
DAV:   4    -0.284705774960E+03    0.73414E-05   -0.14300E-05  3280   0.681E-03    0.402E-03
DAV:   5    -0.284705775169E+03   -0.20953E-06   -0.47859E-06  2672   0.332E-03
     77 T=   241. E= -.28261550E+03 F= -.28470578E+03 E0= -.28470183E+03  EK= 0.20903E+01 SP= 0.00E+00 SK= 0.00E+00
 bond charge predicted
 prediction of wavefunctions
       N       E                     dE             d eps       ncg     rms          rms(c)
DAV:   1    -0.284683121458E+03    0.22654E-01   -0.19973E-03  2992   0.275E-01    0.368E-02
DAV:   2    -0.284683316327E+03   -0.19487E-03   -0.23942E-03  3136   0.739E-02    0.219E-02
DAV:   3    -0.284683306479E+03    0.98479E-05   -0.33409E-05  3472   0.103E-02    0.135E-02
DAV:   4    -0.284683297453E+03    0.90268E-05   -0.16563E-05  3328   0.723E-03    0.379E-03
DAV:   5    -0.284683297581E+03   -0.12864E-06   -0.47938E-06  2512   0.336E-03
     78 T=   241. E= -.28259588E+03 F= -.28468330E+03 E0= -.28467933E+03  EK= 0.20874E+01 SP= 0.00E+00 SK= 0.00E+00
 bond charge predicted
 prediction of wavefunctions
       N       E                     dE             d eps       ncg     rms          rms(c)
DAV:   1    -0.284658867243E+03    0.24430E-01   -0.14069E-03  2944   0.267E-01    0.340E-02
DAV:   2    -0.284659032169E+03   -0.16493E-03   -0.20809E-03  3104   0.675E-02    0.215E-02
DAV:   3    -0.284659022113E+03    0.10056E-04   -0.30367E-05  3488   0.989E-03    0.133E-02
DAV:   4    -0.284659012981E+03    0.91323E-05   -0.17962E-05  3232   0.749E-03    0.363E-03
DAV:   5    -0.284659013204E+03   -0.22358E-06   -0.52172E-06  2704   0.347E-03
     79 T=   238. E= -.28259354E+03 F= -.28465901E+03 E0= -.28465504E+03  EK= 0.20655E+01 SP= 0.00E+00 SK= 0.00E+00
 bond charge predicted
 prediction of wavefunctions
       N       E                     dE             d eps       ncg     rms          rms(c)
DAV:   1    -0.284633949775E+03    0.25063E-01   -0.17580E-03  2992   0.268E-01    0.359E-02
DAV:   2    -0.284634129013E+03   -0.17924E-03   -0.22303E-03  3072   0.711E-02    0.216E-02
DAV:   3    -0.284634118662E+03    0.10351E-04   -0.31307E-05  3520   0.100E-02    0.134E-02
DAV:   4    -0.284634109647E+03    0.90151E-05   -0.18615E-05  3264   0.744E-03    0.366E-03
DAV:   5    -0.284634109883E+03   -0.23597E-06   -0.46956E-06  2592   0.335E-03
     80 T=   235. E= -.28259827E+03 F= -.28463411E+03 E0= -.28463013E+03  EK= 0.20358E+01 SP= 0.00E+00 SK= 0.00E+00
 bond charge predicted
 prediction of wavefunctions
       N       E                     dE             d eps       ncg     rms          rms(c)
DAV:   1    -0.284609517773E+03    0.24592E-01   -0.15021E-03  2944   0.260E-01    0.351E-02
DAV:   2    -0.284609679228E+03   -0.16145E-03   -0.20515E-03  3120   0.678E-02    0.219E-02
DAV:   3    -0.284609668045E+03    0.11182E-04   -0.29408E-05  3504   0.965E-03    0.136E-02
DAV:   4    -0.284609658066E+03    0.99793E-05   -0.18899E-05  3216   0.745E-03    0.340E-03
DAV:   5    -0.284609658290E+03   -0.22409E-06   -0.44644E-06  2528   0.325E-03
     81 T=   231. E= -.28261108E+03 F= -.28460966E+03 E0= -.28460568E+03  EK= 0.19986E+01 SP= 0.00E+00 SK= 0.00E+00
 bond charge predicted
 prediction of wavefunctions
       N       E                     dE             d eps       ncg     rms          rms(c)
DAV:   1    -0.284585735961E+03    0.23922E-01   -0.14506E-03  3008   0.258E-01    0.343E-02
DAV:   2    -0.284585890537E+03   -0.15458E-03   -0.19770E-03  3024   0.667E-02    0.209E-02
DAV:   3    -0.284585880540E+03    0.99971E-05   -0.28302E-05  3520   0.946E-03    0.129E-02
DAV:   4    -0.284585871921E+03    0.86184E-05   -0.17008E-05  3232   0.707E-03    0.332E-03
DAV:   5    -0.284585872197E+03   -0.27520E-06   -0.39575E-06  2400   0.307E-03
     82 T=   226. E= -.28262964E+03 F= -.28458587E+03 E0= -.28458189E+03  EK= 0.19562E+01 SP= 0.00E+00 SK= 0.00E+00
 bond charge predicted
 prediction of wavefunctions
       N       E                     dE             d eps       ncg     rms          rms(c)
DAV:   1    -0.284565126193E+03    0.20746E-01   -0.19376E-03  2944   0.255E-01    0.363E-02
DAV:   2    -0.284565302920E+03   -0.17673E-03   -0.22104E-03  3136   0.705E-02    0.220E-02
DAV:   3    -0.284565292765E+03    0.10155E-04   -0.30658E-05  3472   0.985E-03    0.136E-02
DAV:   4    -0.284565283780E+03    0.89851E-05   -0.17457E-05  3248   0.726E-03    0.358E-03
DAV:   5    -0.284565284014E+03   -0.23433E-06   -0.44163E-06  2544   0.324E-03
     83 T=   221. E= -.28264969E+03 F= -.28456528E+03 E0= -.28456130E+03  EK= 0.19156E+01 SP= 0.00E+00 SK= 0.00E+00
 bond charge predicted
 prediction of wavefunctions
       N       E                     dE             d eps       ncg     rms          rms(c)
DAV:   1    -0.284546192767E+03    0.19091E-01   -0.14919E-03  2960   0.248E-01    0.337E-02
DAV:   2    -0.284546347949E+03   -0.15518E-03   -0.19521E-03  3152   0.659E-02    0.208E-02
DAV:   3    -0.284546338361E+03    0.95873E-05   -0.27516E-05  3472   0.935E-03    0.130E-02
DAV:   4    -0.284546329959E+03    0.84026E-05   -0.17182E-05  3280   0.719E-03    0.335E-03
DAV:   5    -0.284546330309E+03   -0.35055E-06   -0.43387E-06  2464   0.319E-03
     84 T=   218. E= -.28265857E+03 F= -.28454633E+03 E0= -.28454235E+03  EK= 0.18878E+01 SP= 0.00E+00 SK= 0.00E+00
 bond charge predicted
 prediction of wavefunctions
       N       E                     dE             d eps       ncg     rms          rms(c)
DAV:   1    -0.284525538536E+03    0.20791E-01   -0.17475E-03  3008   0.251E-01    0.350E-02
DAV:   2    -0.284525702673E+03   -0.16414E-03   -0.20458E-03  3104   0.678E-02    0.211E-02
DAV:   3    -0.284525692603E+03    0.10070E-04   -0.28418E-05  3488   0.952E-03    0.131E-02
DAV:   4    -0.284525683942E+03    0.86606E-05   -0.17273E-05  3312   0.715E-03    0.337E-03
DAV:   5    -0.284525684255E+03   -0.31257E-06   -0.40332E-06  2384   0.311E-03
     85 T=   215. E= -.28266371E+03 F= -.28452568E+03 E0= -.28452171E+03  EK= 0.18620E+01 SP= 0.00E+00 SK= 0.00E+00
 bond charge predicted
 prediction of wavefunctions
       N       E                     dE             d eps       ncg     rms          rms(c)
DAV:   1    -0.284503544825E+03    0.22139E-01   -0.17889E-03  3008   0.249E-01    0.345E-02
DAV:   2    -0.284503718038E+03   -0.17321E-03   -0.21110E-03  3056   0.689E-02    0.204E-02
DAV:   3    -0.284503710085E+03    0.79529E-05   -0.29003E-05  3488   0.971E-03    0.126E-02
DAV:   4    -0.284503703327E+03    0.67579E-05   -0.14775E-05  3328   0.687E-03    0.377E-03
DAV:   5    -0.284503703704E+03   -0.37674E-06   -0.45561E-06  2416   0.327E-03
     86 T=   214. E= -.28264970E+03 F= -.28450370E+03 E0= -.28449973E+03  EK= 0.18540E+01 SP= 0.00E+00 SK= 0.00E+00
 bond charge predicted
 prediction of wavefunctions
       N       E                     dE             d eps       ncg     rms          rms(c)
DAV:   1    -0.284483764298E+03    0.19939E-01   -0.21013E-03  2944   0.251E-01    0.357E-02
DAV:   2    -0.284483945404E+03   -0.18111E-03   -0.22330E-03  3120   0.706E-02    0.217E-02
DAV:   3    -0.284483936507E+03    0.88965E-05   -0.30945E-05  3488   0.998E-03    0.134E-02
DAV:   4    -0.284483928539E+03    0.79683E-05   -0.15734E-05  3328   0.702E-03    0.386E-03
DAV:   5    -0.284483928777E+03   -0.23794E-06   -0.45261E-06  2416   0.328E-03
     87 T=   218. E= -.28259746E+03 F= -.28448393E+03 E0= -.28447995E+03  EK= 0.18865E+01 SP= 0.00E+00 SK= 0.00E+00
 bond charge predicted
 prediction of wavefunctions
       N       E                     dE             d eps       ncg     rms          rms(c)
DAV:   1    -0.284463893964E+03    0.20035E-01   -0.16954E-03  2928   0.247E-01    0.349E-02
DAV:   2    -0.284464060281E+03   -0.16632E-03   -0.20636E-03  3072   0.686E-02    0.209E-02
DAV:   3    -0.284464051410E+03    0.88710E-05   -0.27978E-05  3504   0.941E-03    0.129E-02
DAV:   4    -0.284464043437E+03    0.79729E-05   -0.15551E-05  3312   0.688E-03    0.336E-03
DAV:   5    -0.284464043704E+03   -0.26713E-06   -0.38878E-06  2272   0.305E-03
     88 T=   217. E= -.28258498E+03 F= -.28446404E+03 E0= -.28446005E+03  EK= 0.18791E+01 SP= 0.00E+00 SK= 0.00E+00
 bond charge predicted
 prediction of wavefunctions
       N       E                     dE             d eps       ncg     rms          rms(c)
DAV:   1    -0.284443899656E+03    0.20144E-01   -0.14688E-03  2944   0.239E-01    0.337E-02
DAV:   2    -0.284444039069E+03   -0.13941E-03   -0.18208E-03  3072   0.634E-02    0.217E-02
DAV:   3    -0.284444027163E+03    0.11905E-04   -0.27012E-05  3504   0.924E-03    0.135E-02
DAV:   4    -0.284444016776E+03    0.10388E-04   -0.19869E-05  3248   0.749E-03    0.322E-03
DAV:   5    -0.284444016947E+03   -0.17080E-06   -0.41556E-06  2400   0.316E-03
     89 T=   215. E= -.28257891E+03 F= -.28444402E+03 E0= -.28444002E+03  EK= 0.18651E+01 SP= 0.00E+00 SK= 0.00E+00
 bond charge predicted
 prediction of wavefunctions
       N       E                     dE             d eps       ncg     rms          rms(c)
DAV:   1    -0.284424035326E+03    0.19981E-01   -0.20713E-03  2960   0.245E-01    0.364E-02
DAV:   2    -0.284424205486E+03   -0.17016E-03   -0.21405E-03  3184   0.697E-02    0.215E-02
DAV:   3    -0.284424195362E+03    0.10124E-04   -0.30207E-05  3424   0.989E-03    0.132E-02
DAV:   4    -0.284424186898E+03    0.84642E-05   -0.17257E-05  3328   0.727E-03    0.358E-03
DAV:   5    -0.284424187189E+03   -0.29096E-06   -0.44174E-06  2464   0.328E-03
     90 T=   221. E= -.28250932E+03 F= -.28442419E+03 E0= -.28442019E+03  EK= 0.19149E+01 SP= 0.00E+00 SK= 0.00E+00
 bond charge predicted
 prediction of wavefunctions
       N       E                     dE             d eps       ncg     rms          rms(c)
DAV:   1    -0.284402547841E+03    0.21639E-01   -0.18822E-03  2944   0.247E-01    0.364E-02
DAV:   2    -0.284402711597E+03   -0.16376E-03   -0.21095E-03  3104   0.684E-02    0.227E-02
DAV:   3    -0.284402699500E+03    0.12097E-04   -0.31029E-05  3504   0.988E-03    0.141E-02
DAV:   4    -0.284402689233E+03    0.10267E-04   -0.20710E-05  3264   0.773E-03    0.348E-03
DAV:   5    -0.284402689579E+03   -0.34659E-06   -0.44973E-06  2496   0.328E-03
     91 T=   223. E= -.28247236E+03 F= -.28440269E+03 E0= -.28439869E+03  EK= 0.19303E+01 SP= 0.00E+00 SK= 0.00E+00
 bond charge predicted
 prediction of wavefunctions
       N       E                     dE             d eps       ncg     rms          rms(c)
DAV:   1    -0.284386790289E+03    0.15899E-01   -0.23444E-03  2944   0.245E-01    0.373E-02
DAV:   2    -0.284386968006E+03   -0.17772E-03   -0.22428E-03  3200   0.703E-02    0.229E-02
DAV:   3    -0.284386956298E+03    0.11709E-04   -0.32066E-05  3456   0.101E-02    0.142E-02
DAV:   4    -0.284386946122E+03    0.10176E-04   -0.19720E-05  3232   0.756E-03    0.358E-03
DAV:   5    -0.284386946376E+03   -0.25384E-06   -0.45076E-06  2576   0.327E-03
     92 T=   223. E= -.28245957E+03 F= -.28438695E+03 E0= -.28438294E+03  EK= 0.19274E+01 SP= 0.00E+00 SK= 0.00E+00
 bond charge predicted
 prediction of wavefunctions
       N       E                     dE             d eps       ncg     rms          rms(c)
DAV:   1    -0.284375864763E+03    0.11081E-01   -0.23350E-03  2944   0.245E-01    0.383E-02
DAV:   2    -0.284376037379E+03   -0.17262E-03   -0.22172E-03  3104   0.705E-02    0.237E-02
DAV:   3    -0.284376024260E+03    0.13119E-04   -0.32120E-05  3488   0.101E-02    0.146E-02
DAV:   4    -0.284376013310E+03    0.10950E-04   -0.21973E-05  3248   0.794E-03    0.358E-03
DAV:   5    -0.284376013606E+03   -0.29567E-06   -0.46463E-06  2560   0.340E-03
     93 T=   226. E= -.28242089E+03 F= -.28437601E+03 E0= -.28437201E+03  EK= 0.19551E+01 SP= 0.00E+00 SK= 0.00E+00
 bond charge predicted
 prediction of wavefunctions
       N       E                     dE             d eps       ncg     rms          rms(c)
DAV:   1    -0.284366516277E+03    0.94970E-02   -0.19722E-03  2976   0.240E-01    0.373E-02
DAV:   2    -0.284366670676E+03   -0.15440E-03   -0.20450E-03  3136   0.673E-02    0.235E-02
DAV:   3    -0.284366656378E+03    0.14299E-04   -0.31142E-05  3424   0.995E-03    0.146E-02
DAV:   4    -0.284366644738E+03    0.11640E-04   -0.24307E-05  3296   0.827E-03    0.338E-03
DAV:   5    -0.284366645154E+03   -0.41635E-06   -0.47057E-06  2544   0.342E-03
     94 T=   230. E= -.28237384E+03 F= -.28436665E+03 E0= -.28436264E+03  EK= 0.19928E+01 SP= 0.00E+00 SK= 0.00E+00
 bond charge predicted
 prediction of wavefunctions
       N       E                     dE             d eps       ncg     rms          rms(c)
DAV:   1    -0.284359905237E+03    0.67395E-02   -0.16566E-03  2880   0.240E-01    0.364E-02
DAV:   2    -0.284360049590E+03   -0.14435E-03   -0.19116E-03  3088   0.658E-02    0.227E-02
DAV:   3    -0.284360036003E+03    0.13587E-04   -0.29047E-05  3472   0.961E-03    0.140E-02
DAV:   4    -0.284360025397E+03    0.10607E-04   -0.23312E-05  3264   0.812E-03    0.328E-03
DAV:   5    -0.284360025917E+03   -0.52022E-06   -0.44728E-06  2608   0.338E-03
     95 T=   230. E= -.28236465E+03 F= -.28436003E+03 E0= -.28435602E+03  EK= 0.19954E+01 SP= 0.00E+00 SK= 0.00E+00
 bond charge predicted
 prediction of wavefunctions
       N       E                     dE             d eps       ncg     rms          rms(c)
DAV:   1    -0.284356163764E+03    0.38616E-02   -0.15399E-03  3040   0.233E-01    0.344E-02
DAV:   2    -0.284356303227E+03   -0.13946E-03   -0.18443E-03  3120   0.633E-02    0.218E-02
DAV:   3    -0.284356291530E+03    0.11697E-04   -0.27845E-05  3472   0.938E-03    0.134E-02
DAV:   4    -0.284356282065E+03    0.94650E-05   -0.21228E-05  3216   0.775E-03    0.320E-03
DAV:   5    -0.284356282537E+03   -0.47194E-06   -0.43715E-06  2480   0.325E-03
     96 T=   226. E= -.28240075E+03 F= -.28435628E+03 E0= -.28435227E+03  EK= 0.19555E+01 SP= 0.00E+00 SK= 0.00E+00
 bond charge predicted
 prediction of wavefunctions
       N       E                     dE             d eps       ncg     rms          rms(c)
DAV:   1    -0.284353838340E+03    0.24437E-02   -0.14372E-03  2944   0.234E-01    0.337E-02
DAV:   2    -0.284353971590E+03   -0.13325E-03   -0.17457E-03  3088   0.627E-02    0.205E-02
DAV:   3    -0.284353960939E+03    0.10651E-04   -0.26167E-05  3504   0.914E-03    0.127E-02
DAV:   4    -0.284353952616E+03    0.83238E-05   -0.18489E-05  3216   0.731E-03    0.309E-03
DAV:   5    -0.284353953095E+03   -0.47913E-06   -0.38359E-06  2416   0.310E-03
     97 T=   225. E= -.28240903E+03 F= -.28435395E+03 E0= -.28434993E+03  EK= 0.19449E+01 SP= 0.00E+00 SK= 0.00E+00
 bond charge predicted
 prediction of wavefunctions
       N       E                     dE             d eps       ncg     rms          rms(c)
DAV:   1    -0.284355068586E+03   -0.11160E-02   -0.20944E-03  2944   0.241E-01    0.366E-02
DAV:   2    -0.284355235596E+03   -0.16701E-03   -0.21217E-03  3120   0.686E-02    0.220E-02
DAV:   3    -0.284355224236E+03    0.11360E-04   -0.30904E-05  3472   0.995E-03    0.136E-02
DAV:   4    -0.284355214969E+03    0.92670E-05   -0.19814E-05  3296   0.764E-03    0.347E-03
DAV:   5    -0.284355215338E+03   -0.36873E-06   -0.45336E-06  2464   0.333E-03
     98 T=   222. E= -.28243244E+03 F= -.28435522E+03 E0= -.28435117E+03  EK= 0.19228E+01 SP= 0.00E+00 SK= 0.00E+00
 bond charge predicted
 prediction of wavefunctions
       N       E                     dE             d eps       ncg     rms          rms(c)
DAV:   1    -0.284362133334E+03   -0.69184E-02   -0.22215E-03  2960   0.238E-01    0.363E-02
DAV:   2    -0.284362300757E+03   -0.16742E-03   -0.21101E-03  3152   0.681E-02    0.224E-02
DAV:   3    -0.284362288956E+03    0.11800E-04   -0.30136E-05  3456   0.978E-03    0.140E-02
DAV:   4    -0.284362278979E+03    0.99770E-05   -0.19974E-05  3232   0.757E-03    0.349E-03
DAV:   5    -0.284362279300E+03   -0.32089E-06   -0.44209E-06  2560   0.325E-03
     99 T=   219. E= -.28246316E+03 F= -.28436228E+03 E0= -.28435821E+03  EK= 0.18991E+01 SP= 0.00E+00 SK= 0.00E+00
 bond charge predicted
 prediction of wavefunctions
       N       E                     dE             d eps       ncg     rms          rms(c)
DAV:   1    -0.284370753133E+03   -0.84742E-02   -0.19224E-03  2960   0.238E-01    0.353E-02
DAV:   2    -0.284370919693E+03   -0.16656E-03   -0.20680E-03  3088   0.680E-02    0.206E-02
DAV:   3    -0.284370911270E+03    0.84231E-05   -0.28883E-05  3552   0.961E-03    0.127E-02
DAV:   4    -0.284370904311E+03    0.69588E-05   -0.15473E-05  3232   0.688E-03    0.351E-03
DAV:   5    -0.284370904767E+03   -0.45603E-06   -0.40757E-06  2368   0.311E-03
    100 T=   221. E= -.28245700E+03 F= -.28437090E+03 E0= -.28436681E+03  EK= 0.19139E+01 SP= 0.00E+00 SK= 0.00E+00
 bond charge predicted
 prediction of wavefunctions
 wavefunctions rotated
