<?xml version="1.0" encoding="ISO-8859-1"?>
<modeling>
 <generator>
  <i name="program" type="string">vasp </i>
  <i name="version" type="string">6.4.0  </i>
  <i name="subversion" type="string">14Feb23 (build Mar 14 2023 01:08:06) complex                          parallel </i>
  <i name="platform" type="string">LinuxIFC </i>
  <i name="date" type="string">2024 04 19 </i>
  <i name="time" type="string">17:58:32 </i>
 </generator>
 <incar>
  <i type="string" name="PREC">Normal</i>
  <i type="string" name="ALGO">Normal</i>
  <i type="int" name="NELM">   100</i>
  <i type="int" name="NELMIN">     4</i>
  <i type="int" name="IBRION">     0</i>
  <i name="EDIFF">      0.00000100</i>
  <i type="int" name="NSW">   100</i>
  <i type="int" name="ISIF">     3</i>
  <i type="int" name="ISYM">     0</i>
  <i name="POTIM">      1.00000000</i>
  <i name="TEBEG">    300.00000000</i>
  <i name="TEEND">    300.00000000</i>
  <i name="SMASS">     -1.00000000</i>
  <i type="string" name="LREAL">Auto</i>
  <i type="int" name="ISMEAR">     0</i>
  <i name="SIGMA">      0.05000000</i>
  <i type="logical" name="LWAVE"> F  </i>
  <i type="logical" name="LCHARG"> F  </i>
  <i type="int" name="MDALGO">     3</i>
  <v name="LANGEVIN_GAMMA">     10.00000000</v>
  <i name="LANGEVIN_GAMMA_L">     10.00000000</i>
 </incar>
 <primitive_cell>
  <structure name="primitive_cell" >
   <crystal>
    <varray name="basis" >
     <v>      11.35080000       0.00000000       0.00000000 </v>
     <v>       0.00000000      11.35080000       0.00000000 </v>
     <v>       0.00000000       0.00000000      11.35080000 </v>
    </varray>
    <i name="volume">   1462.44457079 </i>
    <varray name="rec_basis" >
     <v>       0.08809952       0.00000000       0.00000000 </v>
     <v>       0.00000000       0.08809952       0.00000000 </v>
     <v>       0.00000000       0.00000000       0.08809952 </v>
    </varray>
   </crystal>
   <varray name="positions" >
    <v>       0.00000000       0.00000000       0.00000000 </v>
    <v>       0.00000000       0.25000000       0.25000000 </v>
    <v>       0.25000000       0.00000000       0.25000000 </v>
    <v>       0.25000000       0.25000000       0.00000000 </v>
    <v>       0.12500000       0.12500000       0.12500000 </v>
    <v>       0.37500000       0.37500000       0.12500000 </v>
    <v>       0.37500000       0.12500000       0.37500000 </v>
    <v>       0.12500000       0.37500000       0.37500000 </v>
    <v>       0.00000000       0.00000000       0.50000000 </v>
    <v>       0.00000000       0.25000000       0.75000000 </v>
    <v>       0.25000000       0.00000000       0.75000000 </v>
    <v>       0.25000000       0.25000000       0.50000000 </v>
    <v>       0.12500000       0.12500000       0.62500000 </v>
    <v>       0.37500000       0.37500000       0.62500000 </v>
    <v>       0.37500000       0.12500000       0.87500000 </v>
    <v>       0.12500000       0.37500000       0.87500000 </v>
    <v>       0.00000000       0.50000000       0.00000000 </v>
    <v>       0.00000000       0.75000000       0.25000000 </v>
    <v>       0.25000000       0.50000000       0.25000000 </v>
    <v>       0.25000000       0.75000000       0.00000000 </v>
    <v>       0.12500000       0.62500000       0.12500000 </v>
    <v>       0.37500000       0.87500000       0.12500000 </v>
    <v>       0.37500000       0.62500000       0.37500000 </v>
    <v>       0.12500000       0.87500000       0.37500000 </v>
    <v>       0.00000000       0.50000000       0.50000000 </v>
    <v>       0.00000000       0.75000000       0.75000000 </v>
    <v>       0.25000000       0.50000000       0.75000000 </v>
    <v>       0.25000000       0.75000000       0.50000000 </v>
    <v>       0.12500000       0.62500000       0.62500000 </v>
    <v>       0.37500000       0.87500000       0.62500000 </v>
    <v>       0.37500000       0.62500000       0.87500000 </v>
    <v>       0.12500000       0.87500000       0.87500000 </v>
    <v>       0.50000000       0.00000000       0.00000000 </v>
    <v>       0.50000000       0.25000000       0.25000000 </v>
    <v>       0.75000000       0.00000000       0.25000000 </v>
    <v>       0.75000000       0.25000000       0.00000000 </v>
    <v>       0.62500000       0.12500000       0.12500000 </v>
    <v>       0.87500000       0.37500000       0.12500000 </v>
    <v>       0.87500000       0.12500000       0.37500000 </v>
    <v>       0.62500000       0.37500000       0.37500000 </v>
    <v>       0.50000000       0.00000000       0.50000000 </v>
    <v>       0.50000000       0.25000000       0.75000000 </v>
    <v>       0.75000000       0.00000000       0.75000000 </v>
    <v>       0.75000000       0.25000000       0.50000000 </v>
    <v>       0.62500000       0.12500000       0.62500000 </v>
    <v>       0.87500000       0.37500000       0.62500000 </v>
    <v>       0.87500000       0.12500000       0.87500000 </v>
    <v>       0.62500000       0.37500000       0.87500000 </v>
    <v>       0.50000000       0.50000000       0.00000000 </v>
    <v>       0.50000000       0.75000000       0.25000000 </v>
    <v>       0.75000000       0.50000000       0.25000000 </v>
    <v>       0.75000000       0.75000000       0.00000000 </v>
    <v>       0.62500000       0.62500000       0.12500000 </v>
    <v>       0.87500000       0.87500000       0.12500000 </v>
    <v>       0.87500000       0.62500000       0.37500000 </v>
    <v>       0.62500000       0.87500000       0.37500000 </v>
    <v>       0.50000000       0.50000000       0.50000000 </v>
    <v>       0.50000000       0.75000000       0.75000000 </v>
    <v>       0.75000000       0.50000000       0.75000000 </v>
    <v>       0.75000000       0.75000000       0.50000000 </v>
    <v>       0.62500000       0.62500000       0.62500000 </v>
    <v>       0.87500000       0.87500000       0.62500000 </v>
    <v>       0.87500000       0.62500000       0.87500000 </v>
    <v>       0.62500000       0.87500000       0.87500000 </v>
   </varray>
  </structure>
  <varray name="primitive_index" >
   <v type="int" >        1 </v>
   <v type="int" >        2 </v>
   <v type="int" >        3 </v>
   <v type="int" >        4 </v>
   <v type="int" >        5 </v>
   <v type="int" >        6 </v>
   <v type="int" >        7 </v>
   <v type="int" >        8 </v>
   <v type="int" >        9 </v>
   <v type="int" >       10 </v>
   <v type="int" >       11 </v>
   <v type="int" >       12 </v>
   <v type="int" >       13 </v>
   <v type="int" >       14 </v>
   <v type="int" >       15 </v>
   <v type="int" >       16 </v>
   <v type="int" >       17 </v>
   <v type="int" >       18 </v>
   <v type="int" >       19 </v>
   <v type="int" >       20 </v>
   <v type="int" >       21 </v>
   <v type="int" >       22 </v>
   <v type="int" >       23 </v>
   <v type="int" >       24 </v>
   <v type="int" >       25 </v>
   <v type="int" >       26 </v>
   <v type="int" >       27 </v>
   <v type="int" >       28 </v>
   <v type="int" >       29 </v>
   <v type="int" >       30 </v>
   <v type="int" >       31 </v>
   <v type="int" >       32 </v>
   <v type="int" >       33 </v>
   <v type="int" >       34 </v>
   <v type="int" >       35 </v>
   <v type="int" >       36 </v>
   <v type="int" >       37 </v>
   <v type="int" >       38 </v>
   <v type="int" >       39 </v>
   <v type="int" >       40 </v>
   <v type="int" >       41 </v>
   <v type="int" >       42 </v>
   <v type="int" >       43 </v>
   <v type="int" >       44 </v>
   <v type="int" >       45 </v>
   <v type="int" >       46 </v>
   <v type="int" >       47 </v>
   <v type="int" >       48 </v>
   <v type="int" >       49 </v>
   <v type="int" >       50 </v>
   <v type="int" >       51 </v>
   <v type="int" >       52 </v>
   <v type="int" >       53 </v>
   <v type="int" >       54 </v>
   <v type="int" >       55 </v>
   <v type="int" >       56 </v>
   <v type="int" >       57 </v>
   <v type="int" >       58 </v>
   <v type="int" >       59 </v>
   <v type="int" >       60 </v>
   <v type="int" >       61 </v>
   <v type="int" >       62 </v>
   <v type="int" >       63 </v>
   <v type="int" >       64 </v>
  </varray>
 </primitive_cell>
 <kpoints>
  <generation param="Gamma">
   <v type="int" name="divisions">       2        2        2 </v>
   <v name="usershift">      0.00000000       0.00000000       0.00000000 </v>
   <v name="genvec1">      0.50000000       0.00000000       0.00000000 </v>
   <v name="genvec2">      0.00000000       0.50000000       0.00000000 </v>
   <v name="genvec3">      0.00000000       0.00000000       0.50000000 </v>
   <v name="shift">      0.00000000       0.00000000       0.00000000 </v>
  </generation>
  <varray name="kpointlist" >
   <v>       0.00000000       0.00000000       0.00000000 </v>
   <v>       0.50000000       0.00000000       0.00000000 </v>
   <v>       0.00000000       0.50000000       0.00000000 </v>
   <v>       0.00000000       0.00000000       0.50000000 </v>
   <v>       0.50000000       0.50000000       0.00000000 </v>
   <v>       0.00000000       0.50000000       0.50000000 </v>
   <v>       0.50000000       0.00000000       0.50000000 </v>
   <v>       0.50000000       0.50000000       0.50000000 </v>
  </varray>
  <varray name="weights" >
   <v>       0.12500000 </v>
   <v>       0.12500000 </v>
   <v>       0.12500000 </v>
   <v>       0.12500000 </v>
   <v>       0.12500000 </v>
   <v>       0.12500000 </v>
   <v>       0.12500000 </v>
   <v>       0.12500000 </v>
  </varray>
 </kpoints>
 <parameters>
  <separator name="general" >
   <i type="string" name="SYSTEM">unknown system</i>
   <i type="logical" name="LCOMPAT"> F  </i>
  </separator>
  <separator name="electronic" >
   <i type="string" name="PREC">normal</i>
   <i name="ENMAX">    173.80700000</i>
   <i name="ENAUG">    385.84300000</i>
   <i name="EDIFF">      0.00000100</i>
   <i type="int" name="IALGO">    38</i>
   <i type="int" name="IWAVPR">    12</i>
   <i type="int" name="NBANDS">   176</i>
   <i type="int" name="NBANDSLOW">    -1</i>
   <i type="int" name="NBANDSHIGH">    -1</i>
   <i name="NELECT">    256.00000000</i>
   <i type="int" name="TURBO">     0</i>
   <i type="int" name="IRESTART">     0</i>
   <i type="int" name="NREBOOT">     0</i>
   <i type="int" name="NMIN">     0</i>
   <i name="EREF">      0.00000000</i>
   <separator name="electronic smearing" >
    <i type="int" name="ISMEAR">     0</i>
    <i name="SIGMA">      0.05000000</i>
    <i name="KSPACING">      0.50000000</i>
    <i type="logical" name="KGAMMA"> T  </i>
    <i type="logical" name="KBLOWUP"> T  </i>
   </separator>
   <separator name="electronic projectors" >
    <i type="logical" name="LREAL"> T  </i>
    <v name="ROPT">     -0.00050000</v>
    <i type="int" name="LMAXPAW">  -100</i>
    <i type="int" name="LMAXMIX">     2</i>
    <i type="logical" name="NLSPLINE"> F  </i>
   </separator>
   <separator name="electronic startup" >
    <i type="int" name="ISTART">     0</i>
    <i type="int" name="ICHARG">     2</i>
    <i type="int" name="INIWAV">     1</i>
   </separator>
   <separator name="electronic spin" >
    <i type="int" name="ISPIN">     1</i>
    <i type="logical" name="LNONCOLLINEAR"> F  </i>
    <v name="MAGMOM">      1.00000000      1.00000000      1.00000000      1.00000000      1.00000000      1.00000000      1.00000000      1.00000000      1.00000000      1.00000000      1.00000000      1.00000000      1.00000000      1.00000000      1.00000000      1.00000000      1.00000000      1.00000000      1.00000000      1.00000000
      1.00000000      1.00000000      1.00000000      1.00000000      1.00000000      1.00000000      1.00000000      1.00000000      1.00000000      1.00000000      1.00000000      1.00000000      1.00000000      1.00000000      1.00000000      1.00000000      1.00000000      1.00000000      1.00000000      1.00000000
      1.00000000      1.00000000      1.00000000      1.00000000      1.00000000      1.00000000      1.00000000      1.00000000      1.00000000      1.00000000      1.00000000      1.00000000      1.00000000      1.00000000      1.00000000      1.00000000      1.00000000      1.00000000      1.00000000      1.00000000
      1.00000000      1.00000000      1.00000000      1.00000000</v>
    <i name="NUPDOWN">     -1.00000000</i>
    <i type="logical" name="LSORBIT"> F  </i>
    <v name="SAXIS">      0.00000000      0.00000000      1.00000000</v>
    <i type="logical" name="LSPIRAL"> F  </i>
    <v name="QSPIRAL">      0.00000000      0.00000000      0.00000000</v>
    <i type="logical" name="LZEROZ"> F  </i>
   </separator>
   <separator name="electronic exchange-correlation" >
    <i type="logical" name="LASPH"> F  </i>
    <i type="logical" name="LMETAGGA"> F  </i>
   </separator>
   <separator name="electronic convergence" >
    <i type="int" name="NELM">   100</i>
    <i type="int" name="NELMDL">    -5</i>
    <i type="int" name="NELMIN">     4</i>
    <i name="ENINI">    173.80700000</i>
    <separator name="electronic convergence detail" >
     <i type="logical" name="LDIAG"> T  </i>
     <i type="logical" name="LSUBROT"> F  </i>
     <i name="WEIMIN">      0.00100000</i>
     <i name="EBREAK">      0.00000000</i>
     <i name="DEPER">      0.30000000</i>
     <i type="int" name="NRMM">     4</i>
     <i name="TIME">      0.40000000</i>
    </separator>
   </separator>
   <separator name="electronic mixer" >
    <i name="AMIX">      0.40000000</i>
    <i name="BMIX">      1.00000000</i>
    <i name="AMIN">      0.10000000</i>
    <i name="AMIX_MAG">      1.60000000</i>
    <i name="BMIX_MAG">      1.00000000</i>
    <separator name="electronic mixer details" >
     <i type="int" name="IMIX">     4</i>
     <i type="logical" name="MIXFIRST"> F  </i>
     <i type="int" name="MAXMIX">   -45</i>
     <i name="WC">    100.00000000</i>
     <i type="int" name="INIMIX">     1</i>
     <i type="int" name="MIXPRE">     1</i>
     <i type="int" name="MREMOVE">     5</i>
    </separator>
   </separator>
   <separator name="electronic dipolcorrection" >
    <i type="logical" name="LDIPOL"> F  </i>
    <i type="logical" name="LMONO"> F  </i>
    <i type="int" name="IDIPOL">     0</i>
    <i name="EPSILON">      1.00000000</i>
    <v name="DIPOL">   -100.00000000   -100.00000000   -100.00000000</v>
    <i name="EFIELD">      0.00000000</i>
   </separator>
  </separator>
  <separator name="grids" >
   <i type="int" name="NGX">    40</i>
   <i type="int" name="NGY">    40</i>
   <i type="int" name="NGZ">    40</i>
   <i type="int" name="NGXF">    80</i>
   <i type="int" name="NGYF">    80</i>
   <i type="int" name="NGZF">    80</i>
   <i type="logical" name="ADDGRID"> F  </i>
  </separator>
  <separator name="ionic" >
   <i type="int" name="NSW">   100</i>
   <i type="int" name="IBRION">     0</i>
   <i type="int" name="MDALGO">     3</i>
   <i type="int" name="ISIF">     3</i>
   <i name="PSTRESS">      0.00000000</i>
   <i name="EDIFFG">      0.00001000</i>
   <i type="int" name="NFREE">     0</i>
   <i name="POTIM">      1.00000000</i>
   <i name="SMASS">     -1.00000000</i>
   <i name="SCALEE">      1.00000000</i>
  </separator>
  <separator name="ionic md" >
   <i name="TEBEG">    300.00000000</i>
   <i name="TEEND">    300.00000000</i>
   <i type="int" name="NBLOCK">     1</i>
   <i type="int" name="KBLOCK">   100</i>
   <i type="int" name="NPACO">   256</i>
   <i name="APACO">     10.00000000</i>
  </separator>
  <separator name="symmetry" >
   <i type="int" name="ISYM">     0</i>
   <i name="SYMPREC">      0.00001000</i>
  </separator>
  <separator name="dos" >
   <i type="int" name="LORBIT">     0</i>
   <v name="RWIGS">     -1.00000000</v>
   <i type="int" name="NEDOS">   301</i>
   <i name="EMIN">     10.00000000</i>
   <i name="EMAX">    -10.00000000</i>
   <i name="EFERMI">      0.00000000</i>
  </separator>
  <separator name="writing" >
   <i type="int" name="NWRITE">     2</i>
   <i type="logical" name="LWAVE"> F  </i>
   <i type="logical" name="LDOWNSAMPLE"> F  </i>
   <i type="logical" name="LCHARG"> F  </i>
   <i type="logical" name="LPARD"> F  </i>
   <i type="logical" name="LVTOT"> F  </i>
   <i type="logical" name="LVHAR"> F  </i>
   <i type="logical" name="LELF"> F  </i>
   <i type="logical" name="LOPTICS"> F  </i>
   <v name="STM">      0.00000000      0.00000000      0.00000000      0.00000000      0.00000000      0.00000000      0.00000000</v>
  </separator>
  <separator name="performance" >
   <i type="int" name="NPAR">    16</i>
   <i type="int" name="NSIM">     4</i>
   <i type="int" name="NBLK">    -1</i>
   <i type="logical" name="LPLANE"> T  </i>
   <i type="logical" name="LSCALAPACK"> T  </i>
   <i type="logical" name="LSCAAWARE"> F  </i>
   <i type="logical" name="LSCALU"> F  </i>
   <i type="logical" name="LASYNC"> F  </i>
   <i type="logical" name="LORBITALREAL"> F  </i>
  </separator>
  <separator name="miscellaneous" >
   <i type="int" name="IDIOT">     3</i>
   <i type="int" name="PHON_NSTRUCT">    -1</i>
   <i type="logical" name="LMUSIC"> F  </i>
   <v name="POMASS">     72.61000000</v>
   <v name="DARWINR">      0.00000000</v>
   <v name="DARWINV">      1.00000000</v>
   <i type="logical" name="LCORR"> T  </i>
  </separator>
  <i type="logical" name="GGA_COMPAT"> T  </i>
  <i type="logical" name="LBERRY"> F  </i>
  <i type="int" name="ICORELEVEL">     0</i>
  <i type="logical" name="LDAU"> F  </i>
  <i type="int" name="I_CONSTRAINED_M">     0</i>
  <separator name="electronic exchange-correlation" >
   <i type="string" name="GGA">--</i>
   <i type="int" name="VOSKOWN">     0</i>
   <i type="logical" name="LHFCALC"> F  </i>
   <i type="string" name="PRECFOCK"></i>
   <i type="logical" name="LSYMGRAD"> F  </i>
   <i type="logical" name="LHFONE"> F  </i>
   <i type="logical" name="LRHFCALC"> F  </i>
   <i type="logical" name="LTHOMAS"> F  </i>
   <i type="logical" name="LMODELHF"> F  </i>
   <i type="logical" name="LFOCKACE"> F  </i>
   <i name="ENCUT4O">     -1.00000000</i>
   <i type="int" name="EXXOEP">     0</i>
   <i type="int" name="FOURORBIT">     0</i>
   <i name="AEXX">      0.00000000</i>
   <i name="HFALPHA">      0.00000000</i>
   <i name="MCALPHA">      0.00000000</i>
   <i name="ALDAX">      1.00000000</i>
   <i name="AGGAX">      1.00000000</i>
   <i name="ALDAC">      1.00000000</i>
   <i name="AGGAC">      1.00000000</i>
   <i type="int" name="NKREDX">     1</i>
   <i type="int" name="NKREDY">     1</i>
   <i type="int" name="NKREDZ">     1</i>
   <i type="logical" name="SHIFTRED"> F  </i>
   <i type="logical" name="ODDONLY"> F  </i>
   <i type="logical" name="EVENONLY"> F  </i>
   <i type="int" name="LMAXFOCK">     0</i>
   <i type="int" name="NMAXFOCKAE">     0</i>
   <i type="logical" name="LFOCKAEDFT"> F  </i>
   <i name="HFSCREEN">      0.00000000</i>
   <i name="HFSCREENC">      0.00000000</i>
   <i type="int" name="NBANDSGWLOW">     0</i>
  </separator>
  <separator name="vdW DFT" >
   <i type="logical" name="LUSE_VDW"> F  </i>
   <i type="int" name="IVDW_NL">     1</i>
   <i type="logical" name="LSPIN_VDW"> F  </i>
   <i name="Zab_VDW">     -0.84910000</i>
   <i name="PARAM1">      0.12340000</i>
   <i name="PARAM2">      1.00000000</i>
   <i name="PARAM3">      0.00000000</i>
  </separator>
  <separator name="model GW" >
   <i type="int" name="MODEL_GW">     0</i>
   <i name="MODEL_EPS0">     13.71041785</i>
   <i name="MODEL_ALPHA">      1.00000000</i>
  </separator>
  <separator name="linear response parameters" >
   <i type="logical" name="LEPSILON"> F  </i>
   <i type="logical" name="LRPA"> F  </i>
   <i type="logical" name="LNABLA"> F  </i>
   <i type="logical" name="LVEL"> F  </i>
   <i name="CSHIFT">      0.10000000</i>
   <i name="OMEGAMAX">     -1.00000000</i>
   <i name="DEG_THRESHOLD">      0.00200000</i>
   <i name="RTIME">     -0.10000000</i>
   <i name="WPLASMAI">      0.00000000</i>
   <v name="DFIELD">      0.00000000      0.00000000      0.00000000</v>
   <v name="WPLASMA">      0.00000000      0.00000000      0.00000000      0.00000000      0.00000000      0.00000000      0.00000000      0.00000000      0.00000000</v>
  </separator>
  <separator name="orbital magnetization" >
   <i type="logical" name="NUCIND"> F  </i>
   <v name="MAGPOS">      0.00000000      0.00000000      0.00000000</v>
   <i type="logical" name="LNICSALL"> T  </i>
   <i type="logical" name="ORBITALMAG"> F  </i>
   <i type="logical" name="LMAGBLOCH"> F  </i>
   <i type="logical" name="LCHIMAG"> F  </i>
   <i type="logical" name="LGAUGE"> T  </i>
   <i type="int" name="MAGATOM">     0</i>
   <v name="MAGDIPOL">      0.00000000      0.00000000      0.00000000</v>
   <v name="AVECCONST">      0.00000000      0.00000000      0.00000000</v>
  </separator>
  <separator name="response functions" >
   <i type="logical" name="LALL_IN_ONE"> F  </i>
   <i type="int" name="IALL_IN_ONE">    -1</i>
   <i type="int" name="NBANDS_WAVE">    -1</i>
   <i type="logical" name="LFINITE_TEMPERATURE"> F  </i>
   <i type="logical" name="LADDER"> F  </i>
   <i type="logical" name="LRPAFORCE"> F  </i>
   <i type="logical" name="LFXC"> F  </i>
   <i type="logical" name="LHARTREE"> T  </i>
   <i type="int" name="IBSE">     0</i>
   <v type="int" name="KPOINT">    -1     0     0     0</v>
   <i type="logical" name="LTCTC"> F  </i>
   <i type="logical" name="LTCTE"> F  </i>
   <i type="logical" name="LTETE"> F  </i>
   <i type="logical" name="LTRIPLET"> F  </i>
   <i type="logical" name="LFXCEPS"> F  </i>
   <i type="logical" name="LFXHEG"> F  </i>
   <i type="int" name="NATURALO">     2</i>
   <i type="logical" name="LHOLEGF"> F  </i>
   <i type="logical" name="L2ORDER"> F  </i>
   <i type="logical" name="LDMP1"> F  </i>
   <i type="logical" name="LMP2LT"> F  </i>
   <i type="logical" name="LSMP2LT"> F  </i>
   <i type="logical" name="LGWLF"> F  </i>
   <i name="ENCUTGW">     -1.60000002</i>
   <i name="ENCUTGWSOFT">     -1.60000002</i>
   <i name="ENCUTLF">     -1.00000000</i>
   <i type="logical" name="LESF_SPLINES"> F  </i>
   <i type="int" name="LMAXMP2">    -1</i>
   <i name="SCISSOR">      0.00000000</i>
   <i type="int" name="NOMEGA">     0</i>
   <i type="int" name="NOMEGAR">     0</i>
   <i type="int" name="NBANDSGW">    -1</i>
   <i type="int" name="NBANDSO">    -1</i>
   <i type="int" name="NBANDSV">    -1</i>
   <i type="int" name="NELMGW">     1</i>
   <i type="int" name="NELMHF">     1</i>
   <i type="int" name="DIM">     3</i>
   <i type="int" name="IESPILON">     4</i>
   <i type="int" name="ANTIRES">     0</i>
   <i name="OMEGAMAX">    -30.00000000</i>
   <i name="OMEGAMIN">    -30.00000000</i>
   <i name="OMEGATL">   -200.00000000</i>
   <i type="int" name="OMEGAGRID">     0</i>
   <i name="CSHIFT">     -0.10000000</i>
   <i type="logical" name="LSELFENERGY"> F  </i>
   <i type="logical" name="LSPECTRAL"> F  </i>
   <i type="logical" name="LSPECTRALGW"> F  </i>
   <i type="logical" name="LSINGLES"> F  </i>
   <i type="logical" name="LFERMIGW"> F  </i>
   <i type="logical" name="ODDONLYGW"> F  </i>
   <i type="logical" name="EVENONLYGW"> F  </i>
   <i type="int" name="NKREDLFX">     1</i>
   <i type="int" name="NKREDLFY">     1</i>
   <i type="int" name="NKREDLFZ">     1</i>
   <i type="int" name="MAXMEM">  2800</i>
   <i type="int" name="TELESCOPE">     0</i>
   <i type="int" name="NTAUPAR">    -1</i>
   <i type="int" name="NOMEGAPAR">    -1</i>
   <i name="DAMP_NEWTON">      0.80000001</i>
   <i name="LAMBDA">      1.00000000</i>
  </separator>
  <separator name="External order field" >
   <i name="OFIELD_KAPPA">      0.00000000</i>
   <v name="OFIELD_K">      0.00000000      0.00000000      0.00000000</v>
   <i name="OFIELD_Q6_NEAR">      0.00000000</i>
   <i name="OFIELD_Q6_FAR">      0.00000000</i>
   <i name="OFIELD_A">      0.00000000</i>
  </separator>
  <separator name="optional k-points parameters" >
   <i type="int" name="KPOINTS_OPT_MODE">     1</i>
   <i type="logical" name="LKPOINTS_OPT"> F  </i>
  </separator>
 </parameters>
 <atominfo>
  <atoms>      64 </atoms>
  <types>       1 </types>
  <array name="atoms" >
   <dimension dim="1">ion</dimension>
   <field type="string">element</field>
   <field type="int">atomtype</field>
   <set>
    <rc><c>Ge</c><c>   1</c></rc>
    <rc><c>Ge</c><c>   1</c></rc>
    <rc><c>Ge</c><c>   1</c></rc>
    <rc><c>Ge</c><c>   1</c></rc>
    <rc><c>Ge</c><c>   1</c></rc>
    <rc><c>Ge</c><c>   1</c></rc>
    <rc><c>Ge</c><c>   1</c></rc>
    <rc><c>Ge</c><c>   1</c></rc>
    <rc><c>Ge</c><c>   1</c></rc>
    <rc><c>Ge</c><c>   1</c></rc>
    <rc><c>Ge</c><c>   1</c></rc>
    <rc><c>Ge</c><c>   1</c></rc>
    <rc><c>Ge</c><c>   1</c></rc>
    <rc><c>Ge</c><c>   1</c></rc>
    <rc><c>Ge</c><c>   1</c></rc>
    <rc><c>Ge</c><c>   1</c></rc>
    <rc><c>Ge</c><c>   1</c></rc>
    <rc><c>Ge</c><c>   1</c></rc>
    <rc><c>Ge</c><c>   1</c></rc>
    <rc><c>Ge</c><c>   1</c></rc>
    <rc><c>Ge</c><c>   1</c></rc>
    <rc><c>Ge</c><c>   1</c></rc>
    <rc><c>Ge</c><c>   1</c></rc>
    <rc><c>Ge</c><c>   1</c></rc>
    <rc><c>Ge</c><c>   1</c></rc>
    <rc><c>Ge</c><c>   1</c></rc>
    <rc><c>Ge</c><c>   1</c></rc>
    <rc><c>Ge</c><c>   1</c></rc>
    <rc><c>Ge</c><c>   1</c></rc>
    <rc><c>Ge</c><c>   1</c></rc>
    <rc><c>Ge</c><c>   1</c></rc>
    <rc><c>Ge</c><c>   1</c></rc>
    <rc><c>Ge</c><c>   1</c></rc>
    <rc><c>Ge</c><c>   1</c></rc>
    <rc><c>Ge</c><c>   1</c></rc>
    <rc><c>Ge</c><c>   1</c></rc>
    <rc><c>Ge</c><c>   1</c></rc>
    <rc><c>Ge</c><c>   1</c></rc>
    <rc><c>Ge</c><c>   1</c></rc>
    <rc><c>Ge</c><c>   1</c></rc>
    <rc><c>Ge</c><c>   1</c></rc>
    <rc><c>Ge</c><c>   1</c></rc>
    <rc><c>Ge</c><c>   1</c></rc>
    <rc><c>Ge</c><c>   1</c></rc>
    <rc><c>Ge</c><c>   1</c></rc>
    <rc><c>Ge</c><c>   1</c></rc>
    <rc><c>Ge</c><c>   1</c></rc>
    <rc><c>Ge</c><c>   1</c></rc>
    <rc><c>Ge</c><c>   1</c></rc>
    <rc><c>Ge</c><c>   1</c></rc>
    <rc><c>Ge</c><c>   1</c></rc>
    <rc><c>Ge</c><c>   1</c></rc>
    <rc><c>Ge</c><c>   1</c></rc>
    <rc><c>Ge</c><c>   1</c></rc>
    <rc><c>Ge</c><c>   1</c></rc>
    <rc><c>Ge</c><c>   1</c></rc>
    <rc><c>Ge</c><c>   1</c></rc>
    <rc><c>Ge</c><c>   1</c></rc>
    <rc><c>Ge</c><c>   1</c></rc>
    <rc><c>Ge</c><c>   1</c></rc>
    <rc><c>Ge</c><c>   1</c></rc>
    <rc><c>Ge</c><c>   1</c></rc>
    <rc><c>Ge</c><c>   1</c></rc>
    <rc><c>Ge</c><c>   1</c></rc>
   </set>
  </array>
  <array name="atomtypes" >
   <dimension dim="1">type</dimension>
   <field type="int">atomspertype</field>
   <field type="string">element</field>
   <field>mass</field>
   <field>valence</field>
   <field type="string">pseudopotential</field>
   <set>
    <rc><c>  64</c><c>Ge</c><c>     72.61000000</c><c>      4.00000000</c><c>  PAW_PBE Ge 05Jan2001                  </c></rc>
   </set>
  </array>
 </atominfo>
 <structure name="initialpos" >
  <crystal>
   <varray name="basis" >
    <v>      11.35080000       0.00000000       0.00000000 </v>
    <v>       0.00000000      11.35080000       0.00000000 </v>
    <v>       0.00000000       0.00000000      11.35080000 </v>
   </varray>
   <i name="volume">   1462.44457079 </i>
   <varray name="rec_basis" >
    <v>       0.08809952       0.00000000       0.00000000 </v>
    <v>       0.00000000       0.08809952       0.00000000 </v>
    <v>       0.00000000       0.00000000       0.08809952 </v>
   </varray>
  </crystal>
  <varray name="positions" >
   <v>       0.00000000       0.00000000       0.00000000 </v>
   <v>       0.00000000       0.25000000       0.25000000 </v>
   <v>       0.25000000       0.00000000       0.25000000 </v>
   <v>       0.25000000       0.25000000       0.00000000 </v>
   <v>       0.12500000       0.12500000       0.12500000 </v>
   <v>       0.37500000       0.37500000       0.12500000 </v>
   <v>       0.37500000       0.12500000       0.37500000 </v>
   <v>       0.12500000       0.37500000       0.37500000 </v>
   <v>       0.00000000       0.00000000       0.50000000 </v>
   <v>       0.00000000       0.25000000       0.75000000 </v>
   <v>       0.25000000       0.00000000       0.75000000 </v>
   <v>       0.25000000       0.25000000       0.50000000 </v>
   <v>       0.12500000       0.12500000       0.62500000 </v>
   <v>       0.37500000       0.37500000       0.62500000 </v>
   <v>       0.37500000       0.12500000       0.87500000 </v>
   <v>       0.12500000       0.37500000       0.87500000 </v>
   <v>       0.00000000       0.50000000       0.00000000 </v>
   <v>       0.00000000       0.75000000       0.25000000 </v>
   <v>       0.25000000       0.50000000       0.25000000 </v>
   <v>       0.25000000       0.75000000       0.00000000 </v>
   <v>       0.12500000       0.62500000       0.12500000 </v>
   <v>       0.37500000       0.87500000       0.12500000 </v>
   <v>       0.37500000       0.62500000       0.37500000 </v>
   <v>       0.12500000       0.87500000       0.37500000 </v>
   <v>       0.00000000       0.50000000       0.50000000 </v>
   <v>       0.00000000       0.75000000       0.75000000 </v>
   <v>       0.25000000       0.50000000       0.75000000 </v>
   <v>       0.25000000       0.75000000       0.50000000 </v>
   <v>       0.12500000       0.62500000       0.62500000 </v>
   <v>       0.37500000       0.87500000       0.62500000 </v>
   <v>       0.37500000       0.62500000       0.87500000 </v>
   <v>       0.12500000       0.87500000       0.87500000 </v>
   <v>       0.50000000       0.00000000       0.00000000 </v>
   <v>       0.50000000       0.25000000       0.25000000 </v>
   <v>       0.75000000       0.00000000       0.25000000 </v>
   <v>       0.75000000       0.25000000       0.00000000 </v>
   <v>       0.62500000       0.12500000       0.12500000 </v>
   <v>       0.87500000       0.37500000       0.12500000 </v>
   <v>       0.87500000       0.12500000       0.37500000 </v>
   <v>       0.62500000       0.37500000       0.37500000 </v>
   <v>       0.50000000       0.00000000       0.50000000 </v>
   <v>       0.50000000       0.25000000       0.75000000 </v>
   <v>       0.75000000       0.00000000       0.75000000 </v>
   <v>       0.75000000       0.25000000       0.50000000 </v>
   <v>       0.62500000       0.12500000       0.62500000 </v>
   <v>       0.87500000       0.37500000       0.62500000 </v>
   <v>       0.87500000       0.12500000       0.87500000 </v>
   <v>       0.62500000       0.37500000       0.87500000 </v>
   <v>       0.50000000       0.50000000       0.00000000 </v>
   <v>       0.50000000       0.75000000       0.25000000 </v>
   <v>       0.75000000       0.50000000       0.25000000 </v>
   <v>       0.75000000       0.75000000       0.00000000 </v>
   <v>       0.62500000       0.62500000       0.12500000 </v>
   <v>       0.87500000       0.87500000       0.12500000 </v>
   <v>       0.87500000       0.62500000       0.37500000 </v>
   <v>       0.62500000       0.87500000       0.37500000 </v>
   <v>       0.50000000       0.50000000       0.50000000 </v>
   <v>       0.50000000       0.75000000       0.75000000 </v>
   <v>       0.75000000       0.50000000       0.75000000 </v>
   <v>       0.75000000       0.75000000       0.50000000 </v>
   <v>       0.62500000       0.62500000       0.62500000 </v>
   <v>       0.87500000       0.87500000       0.62500000 </v>
   <v>       0.87500000       0.62500000       0.87500000 </v>
   <v>       0.62500000       0.87500000       0.87500000 </v>
  </varray>
  <varray name="velocities" >
   <v>       0.00003894      -0.00000622      -0.00006772 </v>
   <v>      -0.00018158      -0.00031534      -0.00024771 </v>
   <v>      -0.00018930       0.00000843      -0.00000911 </v>
   <v>       0.00004938       0.00039911      -0.00013113 </v>
   <v>      -0.00024955      -0.00009536      -0.00007613 </v>
   <v>      -0.00005937      -0.00014133      -0.00003752 </v>
   <v>      -0.00001698       0.00027210      -0.00001066 </v>
   <v>       0.00010042       0.00008488      -0.00002559 </v>
   <v>       0.00005015       0.00033070       0.00012609 </v>
   <v>      -0.00000255      -0.00008949      -0.00004618 </v>
   <v>      -0.00024387      -0.00011345      -0.00004846 </v>
   <v>      -0.00004623       0.00001873       0.00030647 </v>
   <v>       0.00013332      -0.00035498       0.00008789 </v>
   <v>      -0.00001893      -0.00016683      -0.00007577 </v>
   <v>       0.00004923       0.00001648       0.00003686 </v>
   <v>      -0.00014323       0.00029214       0.00003528 </v>
   <v>       0.00045847       0.00022091       0.00000103 </v>
   <v>      -0.00000497       0.00012080      -0.00006549 </v>
   <v>       0.00048073       0.00006089       0.00023051 </v>
   <v>      -0.00011151       0.00006054       0.00014639 </v>
   <v>      -0.00023106      -0.00006817      -0.00002222 </v>
   <v>       0.00003938       0.00001042      -0.00002275 </v>
   <v>       0.00024349       0.00012225      -0.00013230 </v>
   <v>      -0.00015403      -0.00018226      -0.00018907 </v>
   <v>       0.00003454       0.00018683       0.00019359 </v>
   <v>       0.00010472       0.00012981      -0.00017557 </v>
   <v>       0.00016322      -0.00009059      -0.00025518 </v>
   <v>       0.00018591      -0.00008432      -0.00007955 </v>
   <v>      -0.00022651      -0.00004383      -0.00002994 </v>
   <v>       0.00011383       0.00013423      -0.00022979 </v>
   <v>      -0.00016233       0.00001411       0.00001622 </v>
   <v>       0.00003153      -0.00000083       0.00016809 </v>
   <v>      -0.00027900       0.00015326       0.00009560 </v>
   <v>       0.00028972      -0.00027894      -0.00021293 </v>
   <v>      -0.00013790       0.00004342       0.00008031 </v>
   <v>       0.00012634      -0.00012819      -0.00040176 </v>
   <v>       0.00012993      -0.00005952       0.00024177 </v>
   <v>      -0.00006175       0.00023589      -0.00014720 </v>
   <v>      -0.00005435      -0.00016198       0.00005446 </v>
   <v>       0.00006441      -0.00000905       0.00001840 </v>
   <v>       0.00007890      -0.00016343       0.00006826 </v>
   <v>       0.00010754      -0.00030360       0.00000895 </v>
   <v>      -0.00007063       0.00007808      -0.00016486 </v>
   <v>       0.00027874       0.00014517       0.00020247 </v>
   <v>       0.00002128       0.00002814       0.00011750 </v>
   <v>       0.00008877      -0.00016946      -0.00006064 </v>
   <v>      -0.00006536       0.00010077      -0.00013672 </v>
   <v>      -0.00001428       0.00016232       0.00009130 </v>
   <v>       0.00010178      -0.00004042      -0.00012493 </v>
   <v>      -0.00006626       0.00001282       0.00025224 </v>
   <v>       0.00001355       0.00002428      -0.00024742 </v>
   <v>       0.00008465      -0.00000524       0.00006172 </v>
   <v>      -0.00000002       0.00023940       0.00026506 </v>
   <v>      -0.00013369       0.00006575      -0.00005128 </v>
   <v>      -0.00032168       0.00018890       0.00015938 </v>
   <v>       0.00004468      -0.00010914       0.00003493 </v>
   <v>      -0.00005958      -0.00026733      -0.00018855 </v>
   <v>      -0.00013892      -0.00018888      -0.00013270 </v>
   <v>       0.00021953      -0.00017870       0.00048378 </v>
   <v>      -0.00023256      -0.00027358      -0.00012317 </v>
   <v>       0.00001563       0.00025423       0.00020024 </v>
   <v>      -0.00013770       0.00000868       0.00017248 </v>
   <v>      -0.00009811      -0.00004577      -0.00005307 </v>
   <v>      -0.00002892      -0.00008822       0.00006583 </v>
  </varray>
 </structure>
 <calculation>
  <scstep>
   <time name="dav">    4.25    4.37</time>
   <time name="total">    4.28    4.39</time>
   <energy>
    <i name="alphaZ">    535.32146241 </i>
    <i name="ewald">  -6997.78071654 </i>
    <i name="hartreedc">   -409.20744491 </i>
    <i name="XCdc">   -481.69081717 </i>
    <i name="pawpsdc">   5641.29249273 </i>
    <i name="pawaedc">  -4714.08800302 </i>
    <i name="eentropy">     -0.02108401 </i>
    <i name="bandstr">    166.07525079 </i>
    <i name="atom">   6719.39191737 </i>
    <i name="e_fr_energy">    459.29305765 </i>
    <i name="e_wo_entrp">    459.31414166 </i>
    <i name="e_0_energy">    459.30359966 </i>
   </energy>
  </scstep>
  <scstep>
   <time name="dav">    5.02    5.03</time>
   <time name="total">    5.02    5.03</time>
   <energy>
    <i name="e_fr_energy">   -241.73853699 </i>
    <i name="e_wo_entrp">   -241.73378393 </i>
    <i name="e_0_energy">   -241.73616046 </i>
   </energy>
  </scstep>
  <scstep>
   <time name="dav">    5.01    5.02</time>
   <time name="total">    5.01    5.03</time>
   <energy>
    <i name="e_fr_energy">   -287.90421607 </i>
    <i name="e_wo_entrp">   -287.89330042 </i>
    <i name="e_0_energy">   -287.89875824 </i>
   </energy>
  </scstep>
  <scstep>
   <time name="dav">    5.15    5.16</time>
   <time name="total">    5.15    5.16</time>
   <energy>
    <i name="e_fr_energy">   -288.74160825 </i>
    <i name="e_wo_entrp">   -288.73136966 </i>
    <i name="e_0_energy">   -288.73648895 </i>
   </energy>
  </scstep>
  <scstep>
   <time name="dav">    4.91    4.92</time>
   <time name="total">    4.97    4.98</time>
   <energy>
    <i name="e_fr_energy">   -288.75849471 </i>
    <i name="e_wo_entrp">   -288.74826867 </i>
    <i name="e_0_energy">   -288.75338169 </i>
   </energy>
  </scstep>
  <scstep>
   <time name="dav">    4.93    4.94</time>
   <time name="total">    5.01    5.02</time>
   <energy>
    <i name="e_fr_energy">   -286.70321647 </i>
    <i name="e_wo_entrp">   -286.69265987 </i>
    <i name="e_0_energy">   -286.69793817 </i>
   </energy>
  </scstep>
  <scstep>
   <time name="dav">    4.79    4.80</time>
   <time name="total">    4.87    4.88</time>
   <energy>
    <i name="e_fr_energy">   -285.78764496 </i>
    <i name="e_wo_entrp">   -285.77690961 </i>
    <i name="e_0_energy">   -285.78227728 </i>
   </energy>
  </scstep>
  <scstep>
   <time name="dav">    4.85    4.86</time>
   <time name="total">    4.93    4.94</time>
   <energy>
    <i name="e_fr_energy">   -285.82228085 </i>
    <i name="e_wo_entrp">   -285.81163692 </i>
    <i name="e_0_energy">   -285.81695888 </i>
   </energy>
  </scstep>
  <scstep>
   <time name="dav">    5.17    5.18</time>
   <time name="total">    5.25    5.26</time>
   <energy>
    <i name="e_fr_energy">   -285.82770529 </i>
    <i name="e_wo_entrp">   -285.81706029 </i>
    <i name="e_0_energy">   -285.82238279 </i>
   </energy>
  </scstep>
  <scstep>
   <time name="dav">    4.69    4.70</time>
   <time name="total">    4.77    4.78</time>
   <energy>
    <i name="e_fr_energy">   -285.82831811 </i>
    <i name="e_wo_entrp">   -285.81765082 </i>
    <i name="e_0_energy">   -285.82298446 </i>
   </energy>
  </scstep>
  <scstep>
   <time name="dav">    5.37    5.38</time>
   <time name="total">    5.45    5.47</time>
   <energy>
    <i name="e_fr_energy">   -285.82834980 </i>
    <i name="e_wo_entrp">   -285.81768135 </i>
    <i name="e_0_energy">   -285.82301557 </i>
   </energy>
  </scstep>
  <scstep>
   <time name="dav">    4.61    4.62</time>
   <time name="total">    4.69    4.70</time>
   <energy>
    <i name="e_fr_energy">   -285.82835544 </i>
    <i name="e_wo_entrp">   -285.81768333 </i>
    <i name="e_0_energy">   -285.82301939 </i>
   </energy>
  </scstep>
  <scstep>
   <time name="dav">    3.30    3.31</time>
   <time name="total">    3.32    3.33</time>
   <energy>
    <i name="alphaZ">    535.32146241 </i>
    <i name="ewald">  -6997.78071654 </i>
    <i name="hartreedc">   -503.85386341 </i>
    <i name="XCdc">   -462.46855636 </i>
    <i name="pawpsdc">  15432.51548952 </i>
    <i name="pawaedc"> -14515.98782190 </i>
    <i name="eentropy">     -0.01067193 </i>
    <i name="bandstr">   -492.95559504 </i>
    <i name="atom">   6719.39191737 </i>
    <i name="e_fr_energy">   -285.82835588 </i>
    <i name="e_wo_entrp">   -285.81768395 </i>
    <i name="e_0_energy">   -285.82301992 </i>
   </energy>
  </scstep>
  <structure>
   <crystal>
    <varray name="basis" >
     <v>      11.35080000       0.00000000       0.00000000 </v>
     <v>       0.00000000      11.35080000       0.00000000 </v>
     <v>       0.00000000       0.00000000      11.35080000 </v>
    </varray>
    <i name="volume">   1462.44457079 </i>
    <varray name="rec_basis" >
     <v>       0.08809952       0.00000000       0.00000000 </v>
     <v>       0.00000000       0.08809952       0.00000000 </v>
     <v>       0.00000000       0.00000000       0.08809952 </v>
    </varray>
   </crystal>
   <varray name="positions" >
    <v>       0.00000000       0.00000000       0.00000000 </v>
    <v>       0.00000000       0.25000000       0.25000000 </v>
    <v>       0.25000000       0.00000000       0.25000000 </v>
    <v>       0.25000000       0.25000000       0.00000000 </v>
    <v>       0.12500000       0.12500000       0.12500000 </v>
    <v>       0.37500000       0.37500000       0.12500000 </v>
    <v>       0.37500000       0.12500000       0.37500000 </v>
    <v>       0.12500000       0.37500000       0.37500000 </v>
    <v>       0.00000000       0.00000000       0.50000000 </v>
    <v>       0.00000000       0.25000000       0.75000000 </v>
    <v>       0.25000000       0.00000000       0.75000000 </v>
    <v>       0.25000000       0.25000000       0.50000000 </v>
    <v>       0.12500000       0.12500000       0.62500000 </v>
    <v>       0.37500000       0.37500000       0.62500000 </v>
    <v>       0.37500000       0.12500000       0.87500000 </v>
    <v>       0.12500000       0.37500000       0.87500000 </v>
    <v>       0.00000000       0.50000000       0.00000000 </v>
    <v>       0.00000000       0.75000000       0.25000000 </v>
    <v>       0.25000000       0.50000000       0.25000000 </v>
    <v>       0.25000000       0.75000000       0.00000000 </v>
    <v>       0.12500000       0.62500000       0.12500000 </v>
    <v>       0.37500000       0.87500000       0.12500000 </v>
    <v>       0.37500000       0.62500000       0.37500000 </v>
    <v>       0.12500000       0.87500000       0.37500000 </v>
    <v>       0.00000000       0.50000000       0.50000000 </v>
    <v>       0.00000000       0.75000000       0.75000000 </v>
    <v>       0.25000000       0.50000000       0.75000000 </v>
    <v>       0.25000000       0.75000000       0.50000000 </v>
    <v>       0.12500000       0.62500000       0.62500000 </v>
    <v>       0.37500000       0.87500000       0.62500000 </v>
    <v>       0.37500000       0.62500000       0.87500000 </v>
    <v>       0.12500000       0.87500000       0.87500000 </v>
    <v>       0.50000000       0.00000000       0.00000000 </v>
    <v>       0.50000000       0.25000000       0.25000000 </v>
    <v>       0.75000000       0.00000000       0.25000000 </v>
    <v>       0.75000000       0.25000000       0.00000000 </v>
    <v>       0.62500000       0.12500000       0.12500000 </v>
    <v>       0.87500000       0.37500000       0.12500000 </v>
    <v>       0.87500000       0.12500000       0.37500000 </v>
    <v>       0.62500000       0.37500000       0.37500000 </v>
    <v>       0.50000000       0.00000000       0.50000000 </v>
    <v>       0.50000000       0.25000000       0.75000000 </v>
    <v>       0.75000000       0.00000000       0.75000000 </v>
    <v>       0.75000000       0.25000000       0.50000000 </v>
    <v>       0.62500000       0.12500000       0.62500000 </v>
    <v>       0.87500000       0.37500000       0.62500000 </v>
    <v>       0.87500000       0.12500000       0.87500000 </v>
    <v>       0.62500000       0.37500000       0.87500000 </v>
    <v>       0.50000000       0.50000000       0.00000000 </v>
    <v>       0.50000000       0.75000000       0.25000000 </v>
    <v>       0.75000000       0.50000000       0.25000000 </v>
    <v>       0.75000000       0.75000000       0.00000000 </v>
    <v>       0.62500000       0.62500000       0.12500000 </v>
    <v>       0.87500000       0.87500000       0.12500000 </v>
    <v>       0.87500000       0.62500000       0.37500000 </v>
    <v>       0.62500000       0.87500000       0.37500000 </v>
    <v>       0.50000000       0.50000000       0.50000000 </v>
    <v>       0.50000000       0.75000000       0.75000000 </v>
    <v>       0.75000000       0.50000000       0.75000000 </v>
    <v>       0.75000000       0.75000000       0.50000000 </v>
    <v>       0.62500000       0.62500000       0.62500000 </v>
    <v>       0.87500000       0.87500000       0.62500000 </v>
    <v>       0.87500000       0.62500000       0.87500000 </v>
    <v>       0.62500000       0.87500000       0.87500000 </v>
   </varray>
  </structure>
  <varray name="forces" >
   <v>      -0.00000178      -0.00000013      -0.00000057 </v>
   <v>      -0.00000024      -0.00000073       0.00000034 </v>
   <v>      -0.00000013      -0.00000067       0.00000053 </v>
   <v>      -0.00000064       0.00000044      -0.00000050 </v>
   <v>       0.00000002      -0.00000012       0.00000066 </v>
   <v>      -0.00000025       0.00000086       0.00000133 </v>
   <v>       0.00000034       0.00000064       0.00000017 </v>
   <v>       0.00000081       0.00000021       0.00000038 </v>
   <v>       0.00000027      -0.00000020       0.00000038 </v>
   <v>      -0.00000010      -0.00000047      -0.00000011 </v>
   <v>       0.00000018      -0.00000026      -0.00000093 </v>
   <v>       0.00000046       0.00000053      -0.00000038 </v>
   <v>      -0.00000135      -0.00000038      -0.00000015 </v>
   <v>       0.00000007       0.00000052      -0.00000111 </v>
   <v>       0.00000039      -0.00000114       0.00000015 </v>
   <v>      -0.00000003       0.00000060      -0.00000067 </v>
   <v>       0.00000130       0.00000132      -0.00000079 </v>
   <v>       0.00000049      -0.00000015      -0.00000006 </v>
   <v>       0.00000011      -0.00000001      -0.00000032 </v>
   <v>      -0.00000009      -0.00000126       0.00000048 </v>
   <v>      -0.00000036       0.00000053      -0.00000046 </v>
   <v>       0.00000056       0.00000013      -0.00000047 </v>
   <v>      -0.00000005      -0.00000132       0.00000020 </v>
   <v>      -0.00000061       0.00000020      -0.00000001 </v>
   <v>       0.00000019      -0.00000028      -0.00000017 </v>
   <v>      -0.00000043       0.00000028       0.00000069 </v>
   <v>      -0.00000056       0.00000058      -0.00000007 </v>
   <v>      -0.00000040       0.00000107       0.00000105 </v>
   <v>       0.00000103      -0.00000028       0.00000067 </v>
   <v>      -0.00000061      -0.00000031       0.00000042 </v>
   <v>      -0.00000100       0.00000048      -0.00000024 </v>
   <v>      -0.00000057      -0.00000092      -0.00000070 </v>
   <v>       0.00000051      -0.00000095      -0.00000028 </v>
   <v>      -0.00000000       0.00000079       0.00000205 </v>
   <v>       0.00000023       0.00000063      -0.00000020 </v>
   <v>       0.00000091      -0.00000115      -0.00000008 </v>
   <v>       0.00000075      -0.00000069      -0.00000043 </v>
   <v>      -0.00000099      -0.00000061      -0.00000026 </v>
   <v>       0.00000020      -0.00000024       0.00000079 </v>
   <v>      -0.00000109       0.00000002       0.00000006 </v>
   <v>      -0.00000053       0.00000043      -0.00000021 </v>
   <v>      -0.00000018      -0.00000007      -0.00000071 </v>
   <v>       0.00000142      -0.00000043       0.00000100 </v>
   <v>      -0.00000044      -0.00000032      -0.00000101 </v>
   <v>       0.00000030       0.00000038      -0.00000098 </v>
   <v>       0.00000011      -0.00000043       0.00000055 </v>
   <v>      -0.00000041      -0.00000040      -0.00000011 </v>
   <v>       0.00000122      -0.00000030       0.00000007 </v>
   <v>      -0.00000037       0.00000138       0.00000085 </v>
   <v>       0.00000065       0.00000022      -0.00000152 </v>
   <v>      -0.00000104      -0.00000003       0.00000074 </v>
   <v>       0.00000045       0.00000073      -0.00000030 </v>
   <v>      -0.00000038       0.00000023       0.00000075 </v>
   <v>      -0.00000011      -0.00000048      -0.00000062 </v>
   <v>      -0.00000067       0.00000102      -0.00000030 </v>
   <v>       0.00000061      -0.00000017       0.00000045 </v>
   <v>       0.00000053      -0.00000131      -0.00000021 </v>
   <v>      -0.00000067      -0.00000010      -0.00000064 </v>
   <v>       0.00000034       0.00000040      -0.00000050 </v>
   <v>       0.00000035      -0.00000007       0.00000025 </v>
   <v>       0.00000020      -0.00000006      -0.00000045 </v>
   <v>       0.00000051       0.00000074      -0.00000015 </v>
   <v>       0.00000065       0.00000048      -0.00000032 </v>
   <v>      -0.00000005       0.00000048       0.00000075 </v>
  </varray>
  <varray name="stress" >
   <v>      36.92118547       0.00001098       0.00000607 </v>
   <v>       0.00001116      36.92118640       0.00000634 </v>
   <v>       0.00000605       0.00000656      36.92118613 </v>
  </varray>
  <energy>
   <i name="e_fr_energy">   -285.82835588 </i>
   <i name="e_wo_entrp">   -285.81768395 </i>
   <i name="e_0_energy">   -285.82301992 </i>
   <i name="kinetic">      2.42822211 </i>
   <i name="lattice kinetic">      0.06432163 </i>
   <i name="nosepot">      0.00000000 </i>
   <i name="nosekinetic">      0.00000000 </i>
   <i name="total">   -283.33581214 </i>
  </energy>
  <time name="totalsc">   66.49   66.83</time>
 </calculation>
 <calculation>
  <scstep>
   <time name="dav">    4.54    4.55</time>
   <time name="total">    4.63    4.64</time>
   <energy>
    <i name="alphaZ">    535.29649646 </i>
    <i name="ewald">  -6997.65759062 </i>
    <i name="hartreedc">   -503.85395516 </i>
    <i name="XCdc">   -462.47175314 </i>
    <i name="pawpsdc">  15432.69031884 </i>
    <i name="pawaedc"> -14516.16283516 </i>
    <i name="eentropy">     -0.01059346 </i>
    <i name="bandstr">   -493.04692328 </i>
    <i name="atom">   6719.39191737 </i>
    <i name="e_fr_energy">   -285.82491815 </i>
    <i name="e_wo_entrp">   -285.81432469 </i>
    <i name="e_0_energy">   -285.81962142 </i>
   </energy>
  </scstep>
  <scstep>
   <time name="dav">    5.17    5.18</time>
   <time name="total">    5.25    5.27</time>
   <energy>
    <i name="e_fr_energy">   -285.82615988 </i>
    <i name="e_wo_entrp">   -285.81556834 </i>
    <i name="e_0_energy">   -285.82086411 </i>
   </energy>
  </scstep>
  <scstep>
   <time name="dav">    5.09    5.10</time>
   <time name="total">    5.17    5.18</time>
   <energy>
    <i name="e_fr_energy">   -285.82613908 </i>
    <i name="e_wo_entrp">   -285.81554551 </i>
    <i name="e_0_energy">   -285.82084229 </i>
   </energy>
  </scstep>
  <scstep>
   <time name="dav">    5.07    5.08</time>
   <time name="total">    5.15    5.16</time>
   <energy>
    <i name="e_fr_energy">   -285.82613559 </i>
    <i name="e_wo_entrp">   -285.81553996 </i>
    <i name="e_0_energy">   -285.82083777 </i>
   </energy>
  </scstep>
  <scstep>
   <time name="dav">    4.91    4.92</time>
   <time name="total">    4.94    4.95</time>
   <energy>
    <i name="alphaZ">    535.29649646 </i>
    <i name="ewald">  -6997.65759062 </i>
    <i name="hartreedc">   -503.88022065 </i>
    <i name="XCdc">   -462.47374879 </i>
    <i name="pawpsdc">  15431.82523668 </i>
    <i name="pawaedc"> -14515.29666158 </i>
    <i name="eentropy">     -0.01059588 </i>
    <i name="bandstr">   -493.02096921 </i>
    <i name="atom">   6719.39191737 </i>
    <i name="e_fr_energy">   -285.82613622 </i>
    <i name="e_wo_entrp">   -285.81554034 </i>
    <i name="e_0_energy">   -285.82083828 </i>
   </energy>
  </scstep>
  <structure>
   <crystal>
    <varray name="basis" >
     <v>      11.35094934      -0.00066979      -0.00062416 </v>
     <v>       0.00000000      11.35127589       0.00019865 </v>
     <v>       0.00000000       0.00000000      11.35070416 </v>
    </varray>
    <i name="volume">   1462.51277846 </i>
    <varray name="rec_basis" >
     <v>       0.08809836       0.00000000       0.00000000 </v>
     <v>       0.00000520       0.08809582       0.00000000 </v>
     <v>       0.00000484      -0.00000154       0.08810026 </v>
    </varray>
   </crystal>
   <varray name="positions" >
    <v>       0.99984893       0.99992407       0.00029369 </v>
    <v>       0.00007657       0.25012855       0.25001421 </v>
    <v>       0.25007025       0.99990798       0.24995091 </v>
    <v>       0.24998816       0.25007468       0.00022057 </v>
    <v>       0.12492310       0.12512661       0.12501177 </v>
    <v>       0.37523558       0.37524155       0.12502470 </v>
    <v>       0.37496248       0.12499419       0.37481370 </v>
    <v>       0.12479954       0.37493805       0.37529693 </v>
    <v>       0.99988666       0.00009052       0.50000493 </v>
    <v>       0.00012274       0.24999284       0.74998459 </v>
    <v>       0.25004107       0.99977327       0.75008293 </v>
    <v>       0.24964421       0.25024994       0.49981773 </v>
    <v>       0.12493646       0.12511625       0.62476154 </v>
    <v>       0.37519464       0.37508415       0.62505722 </v>
    <v>       0.37494865       0.12535696       0.87493780 </v>
    <v>       0.12494385       0.37502759       0.87512347 </v>
    <v>       0.99990860       0.49990971       0.99990758 </v>
    <v>       0.99987912       0.74976939       0.24990796 </v>
    <v>       0.24973151       0.50005010       0.24995521 </v>
    <v>       0.24993606       0.74991164       0.99969645 </v>
    <v>       0.12511493       0.62476340       0.12499355 </v>
    <v>       0.37499931       0.87547978       0.12485559 </v>
    <v>       0.37500724       0.62490619       0.37490221 </v>
    <v>       0.12521270       0.87496418       0.37506484 </v>
    <v>       0.99955910       0.50028276       0.50014848 </v>
    <v>       0.99999228       0.74997185       0.74996690 </v>
    <v>       0.25011594       0.49992776       0.75035312 </v>
    <v>       0.24993120       0.74963010       0.50012568 </v>
    <v>       0.12492385       0.62522716       0.62494756 </v>
    <v>       0.37497398       0.87499292       0.62519193 </v>
    <v>       0.37488190       0.62532879       0.87483546 </v>
    <v>       0.12488380       0.87512235       0.87479359 </v>
    <v>       0.50007162       0.00003009       0.00006856 </v>
    <v>       0.50004589       0.24987312       0.25043876 </v>
    <v>       0.74982375       0.00002460       0.25001759 </v>
    <v>       0.74995960       0.25008344       0.99986139 </v>
    <v>       0.62481615       0.12510026       0.12527880 </v>
    <v>       0.87509673       0.37481507       0.12499075 </v>
    <v>       0.87515857       0.12470947       0.37523813 </v>
    <v>       0.62493327       0.37508538       0.37497067 </v>
    <v>       0.49997122       0.99975972       0.49986221 </v>
    <v>       0.50022625       0.24995067       0.74999688 </v>
    <v>       0.75023034       0.99995880       0.75009564 </v>
    <v>       0.74996860       0.24984453       0.49995302 </v>
    <v>       0.62524383       0.12496884       0.62497366 </v>
    <v>       0.87479851       0.37492333       0.62490946 </v>
    <v>       0.87482090       0.12531178       0.87498951 </v>
    <v>       0.62509012       0.37508906       0.87495115 </v>
    <v>       0.50010200       0.50021311       0.00005847 </v>
    <v>       0.49999850       0.74986661       0.25001079 </v>
    <v>       0.75011905       0.50013357       0.25011078 </v>
    <v>       0.74990110       0.74977287       0.99981633 </v>
    <v>       0.62487640       0.62506776       0.12501086 </v>
    <v>       0.87492583       0.87510396       0.12490242 </v>
    <v>       0.87511199       0.62489376       0.37508835 </v>
    <v>       0.62506840       0.87503907       0.37500119 </v>
    <v>       0.49999935       0.49996343       0.49976808 </v>
    <v>       0.50014350       0.75016488       0.75006667 </v>
    <v>       0.75025584       0.49987913       0.74998141 </v>
    <v>       0.75003751       0.74963496       0.49963311 </v>
    <v>       0.62522920       0.62497539       0.62519571 </v>
    <v>       0.87512539       0.87519533       0.62503842 </v>
    <v>       0.87469493       0.62495949       0.87523784 </v>
    <v>       0.62511537       0.87489798       0.87475539 </v>
   </varray>
  </structure>
  <varray name="forces" >
   <v>       0.01020756       0.03104943      -0.05397612 </v>
   <v>      -0.01710198      -0.03359032       0.02299449 </v>
   <v>      -0.02302375       0.02177462      -0.00339182 </v>
   <v>       0.00875394       0.01115175      -0.00784614 </v>
   <v>       0.01032120      -0.01735177       0.01519440 </v>
   <v>      -0.01116838      -0.02272849       0.02404999 </v>
   <v>      -0.02167007      -0.00223322       0.04652030 </v>
   <v>      -0.01894167       0.06114498      -0.02958565 </v>
   <v>       0.04134513      -0.03365560       0.00299662 </v>
   <v>      -0.01128310       0.00882890      -0.01014062 </v>
   <v>      -0.00918619       0.05865464      -0.01827904 </v>
   <v>       0.06982428      -0.02861041       0.03064083 </v>
   <v>       0.02027531      -0.02259273       0.03071741 </v>
   <v>      -0.02308635      -0.00999380      -0.00979663 </v>
   <v>       0.00607534      -0.03640757       0.01440075 </v>
   <v>       0.00744374      -0.00852423      -0.00128211 </v>
   <v>       0.00085945       0.00500191       0.01747833 </v>
   <v>       0.02509092       0.02863978       0.00140437 </v>
   <v>       0.02552241      -0.03817450       0.02435087 </v>
   <v>      -0.00440538       0.03954261       0.04385800 </v>
   <v>      -0.02492153       0.03298348      -0.02698263 </v>
   <v>      -0.00161944      -0.08452301       0.00085790 </v>
   <v>      -0.01447753       0.00428150      -0.00080930 </v>
   <v>      -0.03124659      -0.01249135      -0.00375063 </v>
   <v>       0.05002474      -0.04220889       0.00876250 </v>
   <v>      -0.02593643      -0.00197790       0.01619362 </v>
   <v>      -0.02366512       0.01185644      -0.05491608 </v>
   <v>       0.03262212       0.04274499      -0.01289056 </v>
   <v>       0.00630909      -0.05734904       0.03765447 </v>
   <v>       0.00065407      -0.01756944      -0.03171800 </v>
   <v>       0.04043786      -0.02777796       0.02100338 </v>
   <v>      -0.01384391      -0.00953998       0.03628383 </v>
   <v>       0.00932587       0.01934726      -0.04039912 </v>
   <v>      -0.01749807       0.03389526      -0.04947609 </v>
   <v>       0.02434821       0.00060031       0.00044163 </v>
   <v>      -0.02252961      -0.01017522       0.03801822 </v>
   <v>       0.02332762       0.01035962      -0.03290775 </v>
   <v>      -0.02087881       0.02740150       0.00343105 </v>
   <v>      -0.02035024       0.04320483      -0.05181226 </v>
   <v>       0.03109889      -0.00610964       0.00738955 </v>
   <v>      -0.00391832       0.03201339       0.02600028 </v>
   <v>      -0.00472721       0.00318706      -0.01355715 </v>
   <v>      -0.01455138       0.00989826      -0.01187696 </v>
   <v>       0.00061351       0.01144291      -0.01644112 </v>
   <v>      -0.02742760      -0.02642235       0.00027532 </v>
   <v>       0.02502655      -0.01063413       0.00907388 </v>
   <v>       0.03958296      -0.03499977       0.01554211 </v>
   <v>      -0.01260759       0.01571038       0.00647187 </v>
   <v>      -0.01671844      -0.00453629      -0.03654442 </v>
   <v>      -0.02035477       0.04567750      -0.01247592 </v>
   <v>      -0.00868582      -0.02501801      -0.02831559 </v>
   <v>      -0.00846409       0.03836285       0.03414202 </v>
   <v>       0.02722258      -0.00359070       0.01277613 </v>
   <v>      -0.02395471      -0.03552379       0.01929257 </v>
   <v>      -0.00874635       0.01502703      -0.03160996 </v>
   <v>      -0.00784840      -0.02933006      -0.01005877 </v>
   <v>       0.01145223       0.01722492       0.04132365 </v>
   <v>      -0.00799647      -0.02255111      -0.02598247 </v>
   <v>      -0.02266521       0.00081166       0.00589893 </v>
   <v>       0.00884588       0.05604444       0.05844021 </v>
   <v>      -0.02646837      -0.00685736      -0.02743840 </v>
   <v>      -0.02590948      -0.04754748      -0.02716068 </v>
   <v>       0.05160428       0.00188979      -0.03841917 </v>
   <v>      -0.00285952       0.02946093       0.04038337 </v>
  </varray>
  <varray name="stress" >
   <v>      36.86820613       0.05896933      -0.33121719 </v>
   <v>       0.05896987      36.85223948      -0.06701852 </v>
   <v>      -0.33121672      -0.06701807      36.87538589 </v>
  </varray>
  <energy>
   <i name="e_fr_energy">   -285.82613622 </i>
   <i name="e_wo_entrp">   -285.81554034 </i>
   <i name="e_0_energy">   -285.82083828 </i>
   <i name="kinetic">      2.35759037 </i>
   <i name="lattice kinetic">      0.06624042 </i>
   <i name="nosepot">      0.00000000 </i>
   <i name="nosekinetic">      0.00000000 </i>
   <i name="total">   -283.40230544 </i>
  </energy>
  <time name="totalsc">   29.22   29.28</time>
 </calculation>
 <calculation>
  <scstep>
   <time name="dav">    4.46    4.47</time>
   <time name="total">    4.54    4.55</time>
   <energy>
    <i name="alphaZ">    535.26751444 </i>
    <i name="ewald">  -6997.48930109 </i>
    <i name="hartreedc">   -503.88652543 </i>
    <i name="XCdc">   -462.47813853 </i>
    <i name="pawpsdc">  15430.96651710 </i>
    <i name="pawaedc"> -14514.43677845 </i>
    <i name="eentropy">     -0.01039129 </i>
    <i name="bandstr">   -493.14110972 </i>
    <i name="atom">   6719.39191737 </i>
    <i name="e_fr_energy">   -285.81629559 </i>
    <i name="e_wo_entrp">   -285.80590430 </i>
    <i name="e_0_energy">   -285.81109995 </i>
   </energy>
  </scstep>
  <scstep>
   <time name="dav">    4.62    4.63</time>
   <time name="total">    4.70    4.71</time>
   <energy>
    <i name="e_fr_energy">   -285.81653470 </i>
    <i name="e_wo_entrp">   -285.80614609 </i>
    <i name="e_0_energy">   -285.81134040 </i>
   </energy>
  </scstep>
  <scstep>
   <time name="dav">    5.18    5.19</time>
   <time name="total">    5.26    5.27</time>
   <energy>
    <i name="e_fr_energy">   -285.81652974 </i>
    <i name="e_wo_entrp">   -285.80614191 </i>
    <i name="e_0_energy">   -285.81133583 </i>
   </energy>
  </scstep>
  <scstep>
   <time name="dav">    4.56    4.56</time>
   <time name="total">    4.64    4.65</time>
   <energy>
    <i name="e_fr_energy">   -285.81652502 </i>
    <i name="e_wo_entrp">   -285.80613803 </i>
    <i name="e_0_energy">   -285.81133152 </i>
   </energy>
  </scstep>
  <scstep>
   <time name="dav">    4.54    4.55</time>
   <time name="total">    4.56    4.57</time>
   <energy>
    <i name="alphaZ">    535.26751444 </i>
    <i name="ewald">  -6997.48930109 </i>
    <i name="hartreedc">   -503.92271775 </i>
    <i name="XCdc">   -462.48072437 </i>
    <i name="pawpsdc">  15430.88735272 </i>
    <i name="pawaedc"> -14514.35770452 </i>
    <i name="eentropy">     -0.01038659 </i>
    <i name="bandstr">   -493.10247503 </i>
    <i name="atom">   6719.39191737 </i>
    <i name="e_fr_energy">   -285.81652482 </i>
    <i name="e_wo_entrp">   -285.80613823 </i>
    <i name="e_0_energy">   -285.81133153 </i>
   </energy>
  </scstep>
  <structure>
   <crystal>
    <varray name="basis" >
     <v>      11.35111419      -0.00145303      -0.00129510 </v>
     <v>       0.00000000      11.35182170       0.00043600 </v>
     <v>       0.00000000      -0.00000000      11.35060811 </v>
    </varray>
    <i name="volume">   1462.59196611 </i>
    <varray name="rec_basis" >
     <v>       0.08809708      -0.00000000      -0.00000000 </v>
     <v>       0.00001128       0.08809159       0.00000000 </v>
     <v>       0.00001005      -0.00000338       0.08810101 </v>
    </varray>
   </crystal>
   <varray name="positions" >
    <v>       0.99970661       0.99983987       0.00061424 </v>
    <v>       0.00019996       0.25023146       0.25001145 </v>
    <v>       0.25015880       0.99979254       0.24989978 </v>
    <v>       0.24999642       0.25016334       0.00042876 </v>
    <v>       0.12484307       0.12526578       0.12501205 </v>
    <v>       0.37544669       0.37548876       0.12499187 </v>
    <v>       0.37495751       0.12495721       0.37464200 </v>
    <v>       0.12457124       0.37490107       0.37559846 </v>
    <v>       0.99982182       0.00017889       0.49996313 </v>
    <v>       0.00025750       0.24998917       0.74997605 </v>
    <v>       0.25009310       0.99954457       0.75017310 </v>
    <v>       0.24929042       0.25047614       0.49962340 </v>
    <v>       0.12483970       0.12519674       0.62455068 </v>
    <v>       0.37540768       0.37519670       0.62512244 </v>
    <v>       0.37487562       0.12568935       0.87490994 </v>
    <v>       0.12492724       0.37508532       0.87524160 </v>
    <v>       0.99981378       0.49982470       0.99979180 </v>
    <v>       0.99975159       0.74956578       0.24981513 </v>
    <v>       0.24946891       0.50009107       0.24993618 </v>
    <v>       0.24984975       0.74984651       0.99939236 </v>
    <v>       0.12521774       0.62449681       0.12502598 </v>
    <v>       0.37497490       0.87591360       0.12475426 </v>
    <v>       0.37506273       0.62481864       0.37478016 </v>
    <v>       0.12536662       0.87493078       0.37511582 </v>
    <v>       0.99908065       0.50052515       0.50032910 </v>
    <v>       0.99998826       0.74995839       0.74996082 </v>
    <v>       0.25024250       0.49988268       0.75072686 </v>
    <v>       0.24987522       0.74929691       0.50023522 </v>
    <v>       0.12479953       0.62546510       0.62487029 </v>
    <v>       0.37493004       0.87504080       0.62537521 </v>
    <v>       0.37477444       0.62570090       0.87469422 </v>
    <v>       0.12476910       0.87523881       0.87459323 </v>
    <v>       0.50012259       0.00005780       0.00010907 </v>
    <v>       0.50007320       0.24979981       0.25083498 </v>
    <v>       0.74968802       0.00005171       0.25005294 </v>
    <v>       0.74991964       0.25016817       0.99971940 </v>
    <v>       0.62463102       0.12523090       0.12549968 </v>
    <v>       0.87520042       0.37463803       0.12499442 </v>
    <v>       0.87534421       0.12439866       0.37545671 </v>
    <v>       0.62491055       0.37515195       0.37494188 </v>
    <v>       0.49992297       0.99951360       0.49972836 </v>
    <v>       0.50039117       0.24993891       0.74997805 </v>
    <v>       0.75044929       0.99991223       0.75021648 </v>
    <v>       0.74992800       0.24970422       0.49990189 </v>
    <v>       0.62548138       0.12493385       0.62496030 </v>
    <v>       0.87459222       0.37485798       0.62480054 </v>
    <v>       0.87466273       0.12563544       0.87495364 </v>
    <v>       0.62516455       0.37517051       0.87492071 </v>
    <v>       0.50023214       0.50044717       0.00010726 </v>
    <v>       0.49996014       0.74970186       0.25008529 </v>
    <v>       0.75020555       0.50027383       0.25023958 </v>
    <v>       0.74982563       0.74955128       0.99964404 </v>
    <v>       0.62475420       0.62513312       0.12500197 </v>
    <v>       0.87488789       0.87525156       0.12478095 </v>
    <v>       0.87521727       0.62483787       0.37518475 </v>
    <v>       0.62518075       0.87506278       0.37501483 </v>
    <v>       0.50000401       0.49993427       0.49956401 </v>
    <v>       0.50026981       0.75035018       0.75011400 </v>
    <v>       0.75048826       0.49977786       0.74995366 </v>
    <v>       0.75006900       0.74924953       0.49926659 </v>
    <v>       0.62551524       0.62496009       0.62538114 </v>
    <v>       0.87526526       0.87541432       0.62509731 </v>
    <v>       0.87443936       0.62493217       0.87546333 </v>
    <v>       0.62524852       0.87479806       0.87450448 </v>
   </varray>
  </structure>
  <varray name="forces" >
   <v>       0.02125698       0.06729389      -0.11575506 </v>
   <v>      -0.04018369      -0.06388436       0.04708734 </v>
   <v>      -0.05094794       0.04740381      -0.00497156 </v>
   <v>       0.01235627       0.01827270      -0.01866543 </v>
   <v>       0.02854730      -0.03818041       0.03051152 </v>
   <v>      -0.02085678      -0.04097424       0.05228488 </v>
   <v>      -0.04460137       0.00087032       0.08796535 </v>
   <v>      -0.03512704       0.11823763      -0.05767169 </v>
   <v>       0.07506603      -0.06778449       0.01352968 </v>
   <v>      -0.02263424       0.02118854      -0.02158918 </v>
   <v>      -0.02282373       0.11999839      -0.03537144 </v>
   <v>       0.13605366      -0.05479208       0.06386507 </v>
   <v>       0.04730875      -0.04228046       0.06005184 </v>
   <v>      -0.05616175      -0.02212110      -0.02413093 </v>
   <v>       0.01182705      -0.06855867       0.02071092 </v>
   <v>       0.01215147      -0.01976073      -0.00249089 </v>
   <v>       0.00438741       0.00956336       0.04031290 </v>
   <v>       0.05008973       0.05606441       0.00153611 </v>
   <v>       0.05608747      -0.07706184       0.04704648 </v>
   <v>      -0.01010323       0.07381431       0.09333809 </v>
   <v>      -0.04960221       0.07242536      -0.05793982 </v>
   <v>       0.00128321      -0.16192502      -0.00366191 </v>
   <v>      -0.03724087       0.00500535       0.00788379 </v>
   <v>      -0.05373210      -0.02498891      -0.00965112 </v>
   <v>       0.09841067      -0.07456240       0.01408989 </v>
   <v>      -0.05114250      -0.00280444       0.02772780 </v>
   <v>      -0.04529733       0.02571728      -0.11338526 </v>
   <v>       0.06156800       0.08185923      -0.02543040 </v>
   <v>       0.02007576      -0.11657163       0.07857468 </v>
   <v>       0.00381614      -0.04097390      -0.06450105 </v>
   <v>       0.07904943      -0.05589338       0.03903122 </v>
   <v>      -0.02505968      -0.01850539       0.07448995 </v>
   <v>       0.02015775       0.03372366      -0.07367928 </v>
   <v>      -0.03201914       0.06050032      -0.09455606 </v>
   <v>       0.04290092       0.00273974      -0.00608124 </v>
   <v>      -0.04064594      -0.01950190       0.07542219 </v>
   <v>       0.04536107       0.01433969      -0.05712720 </v>
   <v>      -0.04318312       0.05577272       0.00694103 </v>
   <v>      -0.04180845       0.09079837      -0.09900372 </v>
   <v>       0.05310203      -0.00906319       0.01526048 </v>
   <v>       0.00067602       0.06530860       0.05201428 </v>
   <v>      -0.00617060       0.00116771      -0.02239596 </v>
   <v>      -0.02901848       0.02413484      -0.02845533 </v>
   <v>       0.00572812       0.01682820      -0.03208773 </v>
   <v>      -0.05964125      -0.04964538       0.00209694 </v>
   <v>       0.04898591      -0.02356347       0.02568710 </v>
   <v>       0.07636312      -0.07215573       0.03466563 </v>
   <v>      -0.02390311       0.03158433       0.00840219 </v>
   <v>      -0.03841055      -0.01224853      -0.07432668 </v>
   <v>      -0.02955726       0.09603396      -0.03404209 </v>
   <v>      -0.01283539      -0.04995799      -0.05937338 </v>
   <v>      -0.01495774       0.07748840       0.06715841 </v>
   <v>       0.05395815      -0.00401462       0.03083066 </v>
   <v>      -0.05223920      -0.07794402       0.04419253 </v>
   <v>      -0.01660909       0.02365204      -0.06574875 </v>
   <v>      -0.02091139      -0.05671420      -0.02073614 </v>
   <v>       0.02740903       0.03380557       0.08133817 </v>
   <v>      -0.01420038      -0.04734185      -0.05464909 </v>
   <v>      -0.04256453      -0.00094862       0.01675080 </v>
   <v>       0.02140179       0.11596548       0.11833412 </v>
   <v>      -0.06263010      -0.01222228      -0.05260780 </v>
   <v>      -0.05326599      -0.09735471      -0.05944746 </v>
   <v>       0.09594568       0.00186165      -0.07636800 </v>
   <v>      -0.00960114       0.05766637       0.08394818 </v>
  </varray>
  <varray name="stress" >
   <v>      36.73953245       0.13172567      -0.67481565 </v>
   <v>       0.13172637      36.70114579      -0.17807614 </v>
   <v>      -0.67481472      -0.17807623      36.76019921 </v>
  </varray>
  <energy>
   <i name="e_fr_energy">   -285.81652482 </i>
   <i name="e_wo_entrp">   -285.80613823 </i>
   <i name="e_0_energy">   -285.81133153 </i>
   <i name="kinetic">      2.29194236 </i>
   <i name="lattice kinetic">      0.06203296 </i>
   <i name="nosepot">      0.00000000 </i>
   <i name="nosekinetic">      0.00000000 </i>
   <i name="total">   -283.46254950 </i>
  </energy>
  <time name="totalsc">   27.78   27.84</time>
 </calculation>
 <calculation>
  <scstep>
   <time name="dav">    4.70    4.70</time>
   <time name="total">    4.78    4.79</time>
   <energy>
    <i name="alphaZ">    535.24570897 </i>
    <i name="ewald">  -6997.32636212 </i>
    <i name="hartreedc">   -503.95739240 </i>
    <i name="XCdc">   -462.48543505 </i>
    <i name="pawpsdc">  15430.21635965 </i>
    <i name="pawaedc"> -14513.68565408 </i>
    <i name="eentropy">     -0.01008679 </i>
    <i name="bandstr">   -493.18829077 </i>
    <i name="atom">   6719.39191737 </i>
    <i name="e_fr_energy">   -285.79923523 </i>
    <i name="e_wo_entrp">   -285.78914843 </i>
    <i name="e_0_energy">   -285.79419183 </i>
   </energy>
  </scstep>
  <scstep>
   <time name="dav">    4.57    4.58</time>
   <time name="total">    4.66    4.67</time>
   <energy>
    <i name="e_fr_energy">   -285.79942248 </i>
    <i name="e_wo_entrp">   -285.78933662 </i>
    <i name="e_0_energy">   -285.79437955 </i>
   </energy>
  </scstep>
  <scstep>
   <time name="dav">    5.20    5.21</time>
   <time name="total">    5.28    5.29</time>
   <energy>
    <i name="e_fr_energy">   -285.79941907 </i>
    <i name="e_wo_entrp">   -285.78933419 </i>
    <i name="e_0_energy">   -285.79437663 </i>
   </energy>
  </scstep>
  <scstep>
   <time name="dav">    4.72    4.73</time>
   <time name="total">    4.80    4.81</time>
   <energy>
    <i name="e_fr_energy">   -285.79941539 </i>
    <i name="e_wo_entrp">   -285.78933163 </i>
    <i name="e_0_energy">   -285.79437351 </i>
   </energy>
  </scstep>
  <scstep>
   <time name="dav">    4.50    4.51</time>
   <time name="total">    4.53    4.54</time>
   <energy>
    <i name="alphaZ">    535.24570897 </i>
    <i name="ewald">  -6997.32636212 </i>
    <i name="hartreedc">   -503.97570579 </i>
    <i name="XCdc">   -462.48678746 </i>
    <i name="pawpsdc">  15430.63251134 </i>
    <i name="pawaedc"> -14514.10228619 </i>
    <i name="eentropy">     -0.01008302 </i>
    <i name="bandstr">   -493.16832837 </i>
    <i name="atom">   6719.39191737 </i>
    <i name="e_fr_energy">   -285.79941526 </i>
    <i name="e_wo_entrp">   -285.78933225 </i>
    <i name="e_0_energy">   -285.79437375 </i>
   </energy>
  </scstep>
  <structure>
   <crystal>
    <varray name="basis" >
     <v>      11.35115755      -0.00220702      -0.00184794 </v>
     <v>       0.00000000      11.35233938       0.00084089 </v>
     <v>      -0.00000000      -0.00000000      11.35050955 </v>
    </varray>
    <i name="volume">   1462.65155089 </i>
    <varray name="rec_basis" >
     <v>       0.08809674      -0.00000000       0.00000000 </v>
     <v>       0.00001713       0.08808757       0.00000000 </v>
     <v>       0.00001434      -0.00000653       0.08810177 </v>
    </varray>
   </crystal>
   <varray name="positions" >
    <v>       0.99957275       0.99976890       0.00094055 </v>
    <v>       0.00031855       0.25031819       0.25001610 </v>
    <v>       0.25025940       0.99970179       0.24982311 </v>
    <v>       0.25001219       0.25023246       0.00064987 </v>
    <v>       0.12477055       0.12539448       0.12498485 </v>
    <v>       0.37565832       0.37573581       0.12496197 </v>
    <v>       0.37495118       0.12493692       0.37449857 </v>
    <v>       0.12439328       0.37488638       0.37592974 </v>
    <v>       0.99973949       0.00026238       0.49988979 </v>
    <v>       0.00037010       0.24999846       0.74997894 </v>
    <v>       0.25015239       0.99934444       0.75024642 </v>
    <v>       0.24891854       0.25072000       0.49948545 </v>
    <v>       0.12478098       0.12524457       0.62434840 </v>
    <v>       0.37563876       0.37532154       0.62518245 </v>
    <v>       0.37481133       0.12602151       0.87486547 </v>
    <v>       0.12491893       0.37515323       0.87533368 </v>
    <v>       0.99972860       0.49973678       0.99969341 </v>
    <v>       0.99960644       0.74934831       0.24974208 </v>
    <v>       0.24923552       0.50014383       0.24993101 </v>
    <v>       0.24976500       0.74975445       0.99910841 </v>
    <v>       0.12535868       0.62424608       0.12505865 </v>
    <v>       0.37492386       0.87631371       0.12466484 </v>
    <v>       0.37511907       0.62477308       0.37462950 </v>
    <v>       0.12549312       0.87486725       0.37518564 </v>
    <v>       0.99863457       0.50079343       0.50051964 </v>
    <v>       0.99995976       0.74993994       0.74994269 </v>
    <v>       0.25036937       0.49985560       0.75111748 </v>
    <v>       0.24980965       0.74898683       0.50032216 </v>
    <v>       0.12468230       0.62568648       0.62476357 </v>
    <v>       0.37484550       0.87509787       0.62554863 </v>
    <v>       0.37469715       0.62606326       0.87452922 </v>
    <v>       0.12467109       0.87534409       0.87440283 </v>
    <v>       0.50020503       0.00011542       0.00014432 </v>
    <v>       0.50015953       0.24971359       0.25121594 </v>
    <v>       0.74952974       0.00008839       0.25009461 </v>
    <v>       0.74992681       0.25025948       0.99958483 </v>
    <v>       0.62444644       0.12533242       0.12572815 </v>
    <v>       0.87527997       0.37448518       0.12497014 </v>
    <v>       0.87551704       0.12410536       0.37568108 </v>
    <v>       0.62489176       0.37522726       0.37492251 </v>
    <v>       0.49989777       0.99926596       0.49962531 </v>
    <v>       0.50056142       0.24993471       0.74994717 </v>
    <v>       0.75065612       0.99988754       0.75033484 </v>
    <v>       0.74992798       0.24956593       0.49984847 </v>
    <v>       0.62570651       0.12490205       0.62494934 </v>
    <v>       0.87436335       0.37479174       0.62467950 </v>
    <v>       0.87452087       0.12593049       0.87490771 </v>
    <v>       0.62527119       0.37523299       0.87491891 </v>
    <v>       0.50038142       0.50068313       0.00015202 </v>
    <v>       0.49992496       0.74950773       0.25016979 </v>
    <v>       0.75028450       0.50042485       0.25035704 </v>
    <v>       0.74976852       0.74934585       0.99948925 </v>
    <v>       0.62463932       0.62515661       0.12497687 </v>
    <v>       0.87488137       0.87537572       0.12461937 </v>
    <v>       0.87534866       0.62480681       0.37524358 </v>
    <v>       0.62529480       0.87508065       0.37504755 </v>
    <v>       0.49998140       0.49992822       0.49936448 </v>
    <v>       0.50041213       0.75053106       0.75012868 </v>
    <v>       0.75074457       0.49965892       0.74994285 </v>
    <v>       0.75011341       0.74886306       0.49890602 </v>
    <v>       0.62580796       0.62495984       0.62554882 </v>
    <v>       0.87535766       0.87566348       0.62513487 </v>
    <v>       0.87422296       0.62490639       0.87565278 </v>
    <v>       0.62536617       0.87467499       0.87424078 </v>
   </varray>
  </structure>
  <varray name="forces" >
   <v>       0.03537965       0.10051306      -0.17804437 </v>
   <v>      -0.05944691      -0.08706710       0.07002961 </v>
   <v>      -0.08219159       0.07043085       0.00188732 </v>
   <v>       0.01575769       0.03078233      -0.03196280 </v>
[...]
       <r>    -5.4732     2.0778    58.8813 </r>
       <r>    -5.4124     8.6767    59.4083 </r>
       <r>    -5.3517    18.4658    60.5301 </r>
       <r>    -5.2909    29.1841    62.3029 </r>
       <r>    -5.2302    35.8163    64.4787 </r>
       <r>    -5.1694    26.3289    66.0780 </r>
       <r>    -5.1087    19.7609    67.2785 </r>
       <r>    -5.0479    17.9245    68.3673 </r>
       <r>    -4.9872    11.4164    69.0608 </r>
       <r>    -4.9264     3.0089    69.2436 </r>
       <r>    -4.8657     0.4383    69.2702 </r>
       <r>    -4.8050     3.6972    69.4948 </r>
       <r>    -4.7442    13.1120    70.2913 </r>
       <r>    -4.6835    18.3565    71.4064 </r>
       <r>    -4.6227     8.5348    71.9249 </r>
       <r>    -4.5620     4.1102    72.1746 </r>
       <r>    -4.5012     1.1960    72.2472 </r>
       <r>    -4.4405     0.0455    72.2500 </r>
       <r>    -4.3797     0.0009    72.2500 </r>
       <r>    -4.3190     0.1837    72.2612 </r>
       <r>    -4.2582     4.4331    72.5305 </r>
       <r>    -4.1975    18.8919    73.6781 </r>
       <r>    -4.1367    34.7673    75.7901 </r>
       <r>    -4.0760    49.5417    78.7996 </r>
       <r>    -4.0152    53.0922    82.0248 </r>
       <r>    -3.9545    42.8594    84.6284 </r>
       <r>    -3.8938    33.3083    86.6518 </r>
       <r>    -3.8330    21.0895    87.9329 </r>
       <r>    -3.7723    14.2303    88.7973 </r>
       <r>    -3.7115    17.2855    89.8474 </r>
       <r>    -3.6508    31.2868    91.7479 </r>
       <r>    -3.5900    48.3450    94.6847 </r>
       <r>    -3.5293    53.5196    97.9359 </r>
       <r>    -3.4685    45.1294   100.6773 </r>
       <r>    -3.4078    30.9085   102.5549 </r>
       <r>    -3.3470    17.2211   103.6011 </r>
       <r>    -3.2863    12.9540   104.3880 </r>
       <r>    -3.2255     5.7401   104.7367 </r>
       <r>    -3.1648     2.3998   104.8824 </r>
       <r>    -3.1040     5.9411   105.2433 </r>
       <r>    -3.0433     6.6774   105.6490 </r>
       <r>    -2.9826     9.0289   106.1975 </r>
       <r>    -2.9218     9.0960   106.7500 </r>
       <r>    -2.8611     7.7301   107.2196 </r>
       <r>    -2.8003     5.8275   107.5736 </r>
       <r>    -2.7396     4.2459   107.8315 </r>
       <r>    -2.6788    10.3067   108.4576 </r>
       <r>    -2.6181    17.2249   109.5040 </r>
       <r>    -2.5573    24.0482   110.9648 </r>
       <r>    -2.4966    22.6686   112.3419 </r>
       <r>    -2.4358    15.9136   113.3086 </r>
       <r>    -2.3751     6.7145   113.7164 </r>
       <r>    -2.3143     0.5477   113.7497 </r>
       <r>    -2.2536     0.0047   113.7500 </r>
       <r>    -2.1928     0.0000   113.7500 </r>
       <r>    -2.1321     0.0004   113.7500 </r>
       <r>    -2.0713     0.0949   113.7558 </r>
       <r>    -2.0106     2.3174   113.8966 </r>
       <r>    -1.9499    11.7028   114.6075 </r>
       <r>    -1.8891    22.4429   115.9708 </r>
       <r>    -1.8284    26.4812   117.5795 </r>
       <r>    -1.7676    23.4967   119.0068 </r>
       <r>    -1.7069    10.3313   119.6344 </r>
       <r>    -1.6461     1.8388   119.7461 </r>
       <r>    -1.5854     0.0640   119.7500 </r>
       <r>    -1.5246     0.0002   119.7500 </r>
       <r>    -1.4639     0.0003   119.7500 </r>
       <r>    -1.4031     0.0836   119.7551 </r>
       <r>    -1.3424     2.5439   119.9096 </r>
       <r>    -1.2816    12.7978   120.6871 </r>
       <r>    -1.2209    17.4746   121.7486 </r>
       <r>    -1.1601    13.6013   122.5748 </r>
       <r>    -1.0994     7.5170   123.0315 </r>
       <r>    -1.0387     3.3056   123.2323 </r>
       <r>    -0.9779     0.2896   123.2499 </r>
       <r>    -0.9172     0.0023   123.2500 </r>
       <r>    -0.8564     0.0130   123.2508 </r>
       <r>    -0.7957     1.5090   123.3425 </r>
       <r>    -0.7349    20.5551   124.5911 </r>
       <r>    -0.6742    53.2431   127.8255 </r>
       <r>    -0.6134    49.5622   130.8362 </r>
       <r>    -0.5527    20.8361   132.1019 </r>
       <r>    -0.4919     3.5246   132.3160 </r>
       <r>    -0.4312     7.3525   132.7627 </r>
       <r>    -0.3704    11.7161   133.4744 </r>
       <r>    -0.3097    21.9265   134.8064 </r>
       <r>    -0.2489    47.4153   137.6867 </r>
       <r>    -0.1882    62.9583   141.5112 </r>
       <r>    -0.1275    68.9656   145.7006 </r>
       <r>    -0.0667    62.3152   149.4861 </r>
       <r>    -0.0060    53.5422   152.7386 </r>
       <r>     0.0548    60.9982   156.4440 </r>
       <r>     0.1155    69.2471   160.6506 </r>
       <r>     0.1763    52.4557   163.8371 </r>
       <r>     0.2370    20.9978   165.1127 </r>
       <r>     0.2978     2.2285   165.2480 </r>
       <r>     0.3585     0.0501   165.2511 </r>
       <r>     0.4193     0.7614   165.2973 </r>
       <r>     0.4800     3.9832   165.5393 </r>
       <r>     0.5408    11.9276   166.2639 </r>
       <r>     0.6015    34.7064   168.3722 </r>
       <r>     0.6623    67.2858   172.4596 </r>
       <r>     0.7230    87.1806   177.7555 </r>
       <r>     0.7838    79.5894   182.5903 </r>
       <r>     0.8445    61.8313   186.3463 </r>
       <r>     0.9052    53.8499   189.6176 </r>
       <r>     0.9660    63.2121   193.4575 </r>
       <r>     1.0267    50.0750   196.4994 </r>
       <r>     1.0875    33.6088   198.5410 </r>
       <r>     1.1482    38.6913   200.8914 </r>
       <r>     1.2090    49.0306   203.8698 </r>
       <r>     1.2697    52.8735   207.0817 </r>
       <r>     1.3305    49.6434   210.0974 </r>
       <r>     1.3912    45.5267   212.8630 </r>
       <r>     1.4520    42.1298   215.4223 </r>
       <r>     1.5127    30.4007   217.2690 </r>
       <r>     1.5735    16.1374   218.2493 </r>
       <r>     1.6342    11.9912   218.9777 </r>
       <r>     1.6950    10.6036   219.6219 </r>
       <r>     1.7557    22.2682   220.9746 </r>
       <r>     1.8164    42.3752   223.5488 </r>
       <r>     1.8772    56.4347   226.9770 </r>
       <r>     1.9379    64.9772   230.9241 </r>
       <r>     1.9987    60.4198   234.5944 </r>
       <r>     2.0594    48.0133   237.5111 </r>
       <r>     2.1202    37.9744   239.8179 </r>
       <r>     2.1809    35.8920   241.9982 </r>
       <r>     2.2417    24.9649   243.5148 </r>
       <r>     2.3024    16.4079   244.5115 </r>
       <r>     2.3632     8.6651   245.0379 </r>
       <r>     2.4239     3.6475   245.2595 </r>
       <r>     2.4847     4.6463   245.5417 </r>
       <r>     2.5454    10.3925   246.1730 </r>
       <r>     2.6062    17.6800   247.2470 </r>
       <r>     2.6669    23.9006   248.6989 </r>
       <r>     2.7276    23.3243   250.1158 </r>
       <r>     2.7884    17.9582   251.2067 </r>
       <r>     2.8491    10.5598   251.8482 </r>
       <r>     2.9099     4.5908   252.1270 </r>
       <r>     2.9706     2.2870   252.2660 </r>
       <r>     3.0314     4.9896   252.5691 </r>
       <r>     3.0921    10.6516   253.2161 </r>
       <r>     3.1529    12.6310   253.9834 </r>
       <r>     3.2136     9.9897   254.5902 </r>
       <r>     3.2744     9.1261   255.1446 </r>
       <r>     3.3351     5.0674   255.4525 </r>
       <r>     3.3959     3.8320   255.6852 </r>
       <r>     3.4566     4.6250   255.9662 </r>
       <r>     3.5174     6.3254   256.3504 </r>
       <r>     3.5781     4.1811   256.6044 </r>
       <r>     3.6389     6.9623   257.0274 </r>
       <r>     3.6996     3.4535   257.2372 </r>
       <r>     3.7603     0.2104   257.2499 </r>
       <r>     3.8211     0.0411   257.2524 </r>
       <r>     3.8818     1.4081   257.3380 </r>
       <r>     3.9426     6.2687   257.7188 </r>
       <r>     4.0033    11.7002   258.4295 </r>
       <r>     4.0641    21.8054   259.7541 </r>
       <r>     4.1248    16.5471   260.7593 </r>
       <r>     4.1856     9.2610   261.3219 </r>
       <r>     4.2463     8.3387   261.8284 </r>
       <r>     4.3071     4.7698   262.1182 </r>
       <r>     4.3678     2.6485   262.2791 </r>
       <r>     4.4286     5.1121   262.5896 </r>
       <r>     4.4893     9.5648   263.1707 </r>
       <r>     4.5501    19.4742   264.3537 </r>
       <r>     4.6108    28.7952   266.1029 </r>
       <r>     4.6715    39.3215   268.4915 </r>
       <r>     4.7323    37.0716   270.7435 </r>
       <r>     4.7930    36.7412   272.9754 </r>
       <r>     4.8538    44.4757   275.6772 </r>
       <r>     4.9145    48.9118   278.6484 </r>
       <r>     4.9753    50.3313   281.7059 </r>
       <r>     5.0360    56.6673   285.1482 </r>
       <r>     5.0968    44.7863   287.8689 </r>
       <r>     5.1575    24.4121   289.3518 </r>
       <r>     5.2183    25.9092   290.9257 </r>
       <r>     5.2790    44.6333   293.6370 </r>
       <r>     5.3398    64.2746   297.5415 </r>
       <r>     5.4005    67.4403   301.6383 </r>
       <r>     5.4613    44.8077   304.3602 </r>
       <r>     5.5220    23.9618   305.8158 </r>
       <r>     5.5827    16.1643   306.7978 </r>
       <r>     5.6435    23.0084   308.1954 </r>
       <r>     5.7042    34.4104   310.2858 </r>
       <r>     5.7650    47.7668   313.1875 </r>
       <r>     5.8257    55.5349   316.5610 </r>
       <r>     5.8865    50.2371   319.6128 </r>
       <r>     5.9472    50.2542   322.6655 </r>
       <r>     6.0080    56.6164   326.1048 </r>
       <r>     6.0687    53.0334   329.3264 </r>
       <r>     6.1295    50.2608   332.3796 </r>
       <r>     6.1902    45.1458   335.1221 </r>
       <r>     6.2510    37.6894   337.4116 </r>
       <r>     6.3117    24.1599   338.8792 </r>
       <r>     6.3725     9.8451   339.4773 </r>
       <r>     6.4332     6.9164   339.8974 </r>
       <r>     6.4940    15.0237   340.8101 </r>
       <r>     6.5547    18.8136   341.9529 </r>
       <r>     6.6154    24.3527   343.4323 </r>
       <r>     6.6762    23.6077   344.8664 </r>
       <r>     6.7369    10.1468   345.4828 </r>
       <r>     6.7977     3.8810   345.7185 </r>
       <r>     6.8584     6.2896   346.1006 </r>
       <r>     6.9192     7.7744   346.5729 </r>
       <r>     6.9799    10.1974   347.1923 </r>
       <r>     7.0407    14.6341   348.0813 </r>
       <r>     7.1014    17.7731   349.1610 </r>
       <r>     7.1622    17.7046   350.2365 </r>
       <r>     7.2229    12.7290   351.0097 </r>
       <r>     7.2837     6.3256   351.3940 </r>
       <r>     7.3444     1.7472   351.5001 </r>
       <r>     7.4052     1.5052   351.5915 </r>
       <r>     7.4659     3.3397   351.7944 </r>
       <r>     7.5266     2.8155   351.9655 </r>
       <r>     7.5874     0.5585   351.9994 </r>
       <r>     7.6481     0.0101   352.0000 </r>
       <r>     7.7089     0.0000   352.0000 </r>
       <r>     7.7696     0.0000   352.0000 </r>
       <r>     7.8304     0.0000   352.0000 </r>
       <r>     7.8911     0.0000   352.0000 </r>
       <r>     7.9519     0.0000   352.0000 </r>
       <r>     8.0126     0.0000   352.0000 </r>
       <r>     8.0734     0.0000   352.0000 </r>
       <r>     8.1341     0.0000   352.0000 </r>
       <r>     8.1949     0.0000   352.0000 </r>
       <r>     8.2556     0.0000   352.0000 </r>
       <r>     8.3164     0.0000   352.0000 </r>
      </set>
     </set>
    </array>
   </total>
  </dos>
 </calculation>
 <structure name="finalpos" >
  <crystal>
   <varray name="basis" >
    <v>      11.43297635      -0.03267804      -0.04475420 </v>
    <v>      -0.00000000      11.45356309       0.08807490 </v>
    <v>       0.00000000      -0.00000000      11.44179545 </v>
   </varray>
   <i name="volume">   1498.28384655 </i>
   <varray name="rec_basis" >
    <v>       0.08746629       0.00000000      -0.00000000 </v>
    <v>       0.00024955       0.08730908       0.00000000 </v>
    <v>       0.00034020      -0.00067207       0.08739887 </v>
   </varray>
  </crystal>
  <varray name="positions" >
   <v>       0.00067741       0.01340211       0.00305293 </v>
   <v>       0.00054231       0.26252506       0.26098019 </v>
   <v>       0.24153929       0.00376743       0.25385406 </v>
   <v>       0.25748583       0.25925841       0.01408186 </v>
   <v>       0.12537024       0.13168262       0.13370387 </v>
   <v>       0.36879923       0.38582152       0.13818342 </v>
   <v>       0.37497062       0.13109809       0.37783176 </v>
   <v>       0.11397190       0.39000466       0.38896017 </v>
   <v>       0.00722300       0.00235191       0.50412349 </v>
   <v>       0.00495503       0.25690128       0.75953723 </v>
   <v>       0.24769996       0.00329147       0.75193425 </v>
   <v>       0.25453665       0.26091793       0.50081604 </v>
   <v>       0.13163126       0.13941209       0.63257165 </v>
   <v>       0.37392408       0.38489312       0.63108502 </v>
   <v>       0.37985658       0.13568686       0.87846634 </v>
   <v>       0.13024053       0.38453458       0.88644582 </v>
   <v>       0.99164757       0.50350942       0.99884880 </v>
   <v>       0.00187152       0.76101465       0.23859507 </v>
   <v>       0.24638576       0.50078763       0.26049818 </v>
   <v>       0.25258413       0.75216472       0.99956838 </v>
   <v>       0.12002372       0.62601732       0.11599919 </v>
   <v>       0.37370831       0.87098870       0.11991404 </v>
   <v>       0.37593763       0.62633331       0.37536198 </v>
   <v>       0.11350870       0.87614500       0.37064210 </v>
   <v>       0.98657098       0.49516091       0.51649664 </v>
   <v>       0.99603764       0.74773300       0.74802480 </v>
   <v>       0.25063304       0.50360389       0.74759430 </v>
   <v>       0.24119502       0.74489104       0.49745763 </v>
   <v>       0.11612091       0.61561369       0.63071106 </v>
   <v>       0.36675954       0.86785739       0.62792535 </v>
   <v>       0.37607489       0.63211154       0.86787918 </v>
   <v>       0.11299958       0.87796759       0.87882885 </v>
   <v>       0.49794930       0.00974127       0.00099956 </v>
   <v>       0.50091078       0.25934184       0.25291520 </v>
   <v>       0.74593681       0.00553312       0.25753004 </v>
   <v>       0.74709691       0.25199828       0.99581955 </v>
   <v>       0.61964499       0.13592503       0.12627104 </v>
   <v>       0.86928310       0.37094793       0.12837092 </v>
   <v>       0.88165203       0.12845558       0.36968811 </v>
   <v>       0.63646179       0.38003843       0.37723892 </v>
   <v>       0.49214937       0.00508050       0.50204445 </v>
   <v>       0.51308139       0.25367874       0.74899738 </v>
   <v>       0.75407223       0.00384388       0.75074427 </v>
   <v>       0.75480575       0.24715176       0.49642172 </v>
   <v>       0.62029330       0.12177665       0.61705081 </v>
   <v>       0.86877600       0.35964581       0.63357455 </v>
   <v>       0.87842043       0.13248588       0.87758667 </v>
   <v>       0.62404700       0.38554375       0.87280987 </v>
   <v>       0.49118338       0.50820605       0.99058592 </v>
   <v>       0.50701958       0.75697788       0.24342027 </v>
   <v>       0.75477063       0.50314739       0.24676282 </v>
   <v>       0.74960530       0.74889058       0.99442459 </v>
   <v>       0.62307975       0.62351350       0.12292376 </v>
   <v>       0.86125248       0.88508474       0.12182608 </v>
   <v>       0.88061672       0.62724918       0.37324543 </v>
   <v>       0.62018097       0.87337854       0.37770302 </v>
   <v>       0.51421598       0.50672723       0.50940157 </v>
   <v>       0.50623347       0.75718354       0.75161287 </v>
   <v>       0.75664712       0.50263239       0.75868129 </v>
   <v>       0.74894669       0.74743226       0.50013098 </v>
   <v>       0.63227398       0.62758587       0.63422070 </v>
   <v>       0.87192441       0.87523224       0.61984760 </v>
   <v>       0.87694864       0.63258140       0.87032508 </v>
   <v>       0.62721243       0.88244516       0.87900826 </v>
  </varray>
  <varray name="velocities" >
   <v>       0.00003350      -0.00012943       0.00030481 </v>
   <v>       0.00010218       0.00001571       0.00008496 </v>
   <v>      -0.00006004      -0.00002787      -0.00004962 </v>
   <v>       0.00007050      -0.00007563       0.00008023 </v>
   <v>       0.00023017       0.00007338       0.00015538 </v>
   <v>      -0.00007205       0.00003015       0.00002029 </v>
   <v>       0.00026301       0.00015056      -0.00006455 </v>
   <v>       0.00025487      -0.00012017       0.00022800 </v>
   <v>       0.00010349       0.00025428       0.00003080 </v>
   <v>      -0.00006751      -0.00010609       0.00026409 </v>
   <v>      -0.00002363       0.00002213       0.00005761 </v>
   <v>       0.00011958       0.00002853       0.00010769 </v>
   <v>       0.00011073       0.00007007       0.00010948 </v>
   <v>       0.00004313       0.00010276       0.00012840 </v>
   <v>       0.00014428      -0.00004748       0.00011499 </v>
   <v>       0.00005400       0.00005187       0.00002227 </v>
   <v>      -0.00019041      -0.00003620       0.00007950 </v>
   <v>      -0.00004346       0.00013765      -0.00005795 </v>
   <v>       0.00007015       0.00019472       0.00007055 </v>
   <v>      -0.00002955      -0.00020464      -0.00006863 </v>
   <v>       0.00008346      -0.00006365       0.00012700 </v>
   <v>       0.00009384       0.00025054      -0.00007244 </v>
   <v>       0.00028252       0.00021832       0.00010487 </v>
   <v>       0.00007667       0.00005615       0.00001387 </v>
   <v>       0.00003288      -0.00011409       0.00010303 </v>
   <v>       0.00001310      -0.00011485      -0.00025456 </v>
   <v>       0.00004598       0.00004871      -0.00019691 </v>
   <v>      -0.00022961      -0.00010465      -0.00002415 </v>
   <v>       0.00003557      -0.00007746       0.00001171 </v>
   <v>      -0.00024318       0.00010566       0.00004814 </v>
   <v>      -0.00017744      -0.00009489       0.00026195 </v>
   <v>       0.00003735       0.00021956       0.00003300 </v>
   <v>      -0.00033908       0.00001710       0.00022248 </v>
   <v>       0.00003689       0.00018418       0.00002427 </v>
   <v>      -0.00003119       0.00000282       0.00000602 </v>
   <v>      -0.00014761       0.00008382      -0.00004533 </v>
   <v>      -0.00022851      -0.00012957       0.00004242 </v>
   <v>      -0.00007928       0.00005996      -0.00009599 </v>
   <v>      -0.00000545       0.00009587       0.00012913 </v>
   <v>      -0.00011495       0.00021172      -0.00001039 </v>
   <v>      -0.00011538       0.00020503       0.00005493 </v>
   <v>      -0.00021299      -0.00009354       0.00009017 </v>
   <v>       0.00016851      -0.00016709      -0.00002242 </v>
   <v>       0.00018562       0.00007148       0.00015220 </v>
   <v>       0.00019021       0.00003426      -0.00006731 </v>
   <v>       0.00009705       0.00001040      -0.00000773 </v>
   <v>       0.00004215       0.00006803      -0.00007774 </v>
   <v>      -0.00008111       0.00014902       0.00003135 </v>
   <v>      -0.00005703       0.00015400       0.00020257 </v>
   <v>       0.00015992       0.00004902       0.00006292 </v>
   <v>      -0.00002637      -0.00005821      -0.00001943 </v>
   <v>       0.00009120       0.00015284      -0.00012778 </v>
   <v>       0.00009563      -0.00003833      -0.00022626 </v>
   <v>      -0.00013271       0.00020865      -0.00001634 </v>
   <v>       0.00009930       0.00009600       0.00011602 </v>
   <v>      -0.00009667       0.00006881      -0.00024024 </v>
   <v>       0.00027037       0.00001454       0.00003809 </v>
   <v>       0.00006155      -0.00011062       0.00009791 </v>
   <v>      -0.00002565       0.00010737       0.00000487 </v>
   <v>      -0.00006022       0.00013877       0.00009272 </v>
   <v>       0.00007075       0.00017861       0.00008713 </v>
   <v>      -0.00002429       0.00002390      -0.00015724 </v>
   <v>      -0.00019010       0.00012301      -0.00019609 </v>
   <v>      -0.00028961       0.00024153       0.00029727 </v>
  </varray>
 </structure>
</modeling>
