unknown system                          
           1
    11.350800    0.000000    0.000000
     0.000000   11.350800    0.000000
     0.000000    0.000000   11.350800
   Ge
    64
Direct configuration=     1
   0.00000000  0.00000000  0.00000000
   0.00000000  0.25000000  0.25000000
   0.25000000  0.00000000  0.25000000
   0.25000000  0.25000000  0.00000000
   0.12500000  0.12500000  0.12500000
   0.37500000  0.37500000  0.12500000
   0.37500000  0.12500000  0.37500000
   0.12500000  0.37500000  0.37500000
   0.00000000  0.00000000  0.50000000
   0.00000000  0.25000000  0.75000000
   0.25000000  0.00000000  0.75000000
   0.25000000  0.25000000  0.50000000
   0.12500000  0.12500000  0.62500000
   0.37500000  0.37500000  0.62500000
   0.37500000  0.12500000  0.87500000
   0.12500000  0.37500000  0.87500000
   0.00000000  0.50000000  0.00000000
   0.00000000  0.75000000  0.25000000
   0.25000000  0.50000000  0.25000000
   0.25000000  0.75000000  0.00000000
   0.12500000  0.62500000  0.12500000
   0.37500000  0.87500000  0.12500000
   0.37500000  0.62500000  0.37500000
   0.12500000  0.87500000  0.37500000
   0.00000000  0.50000000  0.50000000
   0.00000000  0.75000000  0.75000000
   0.25000000  0.50000000  0.75000000
   0.25000000  0.75000000  0.50000000
   0.12500000  0.62500000  0.62500000
   0.37500000  0.87500000  0.62500000
   0.37500000  0.62500000  0.87500000
   0.12500000  0.87500000  0.87500000
   0.50000000  0.00000000  0.00000000
   0.50000000  0.25000000  0.25000000
   0.75000000  0.00000000  0.25000000
   0.75000000  0.25000000  0.00000000
   0.62500000  0.12500000  0.12500000
   0.87500000  0.37500000  0.12500000
   0.87500000  0.12500000  0.37500000
   0.62500000  0.37500000  0.37500000
   0.50000000  0.00000000  0.50000000
   0.50000000  0.25000000  0.75000000
   0.75000000  0.00000000  0.75000000
   0.75000000  0.25000000  0.50000000
   0.62500000  0.12500000  0.62500000
   0.87500000  0.37500000  0.62500000
   0.87500000  0.12500000  0.87500000
   0.62500000  0.37500000  0.87500000
   0.50000000  0.50000000  0.00000000
   0.50000000  0.75000000  0.25000000
   0.75000000  0.50000000  0.25000000
   0.75000000  0.75000000  0.00000000
   0.62500000  0.62500000  0.12500000
   0.87500000  0.87500000  0.12500000
   0.87500000  0.62500000  0.37500000
   0.62500000  0.87500000  0.37500000
   0.50000000  0.50000000  0.50000000
   0.50000000  0.75000000  0.75000000
   0.75000000  0.50000000  0.75000000
   0.75000000  0.75000000  0.50000000
   0.62500000  0.62500000  0.62500000
   0.87500000  0.87500000  0.62500000
   0.87500000  0.62500000  0.87500000
   0.62500000  0.87500000  0.87500000
unknown system                          
           1
    11.350949   -0.000670   -0.000624
     0.000000   11.351276    0.000199
     0.000000    0.000000   11.350704
   Ge
    64
Direct configuration=     2
  -0.00015107 -0.00007593  0.00029369
   0.00007657  0.25012855  0.25001421
   0.25007025 -0.00009202  0.24995091
   0.24998816  0.25007468  0.00022057
   0.12492310  0.12512661  0.12501177
   0.37523558  0.37524155  0.12502470
   0.37496248  0.12499419  0.37481370
   0.12479954  0.37493805  0.37529693
  -0.00011334  0.00009052  0.50000493
   0.00012274  0.24999284  0.74998459
   0.25004107 -0.00022673  0.75008293
   0.24964421  0.25024994  0.49981773
   0.12493646  0.12511625  0.62476154
   0.37519464  0.37508415  0.62505722
   0.37494865  0.12535696  0.87493780
   0.12494385  0.37502759  0.87512347
  -0.00009140  0.49990971 -0.00009242
  -0.00012088  0.74976939  0.24990796
   0.24973151  0.50005010  0.24995521
   0.24993606  0.74991164 -0.00030355
   0.12511493  0.62476340  0.12499355
   0.37499931  0.87547978  0.12485559
   0.37500724  0.62490619  0.37490221
   0.12521270  0.87496418  0.37506484
  -0.00044090  0.50028276  0.50014848
  -0.00000772  0.74997185  0.74996690
   0.25011594  0.49992776  0.75035312
   0.24993120  0.74963010  0.50012568
   0.12492385  0.62522716  0.62494756
   0.37497398  0.87499292  0.62519193
   0.37488190  0.62532879  0.87483546
   0.12488380  0.87512235  0.87479359
   0.50007162  0.00003009  0.00006856
   0.50004589  0.24987312  0.25043876
   0.74982375  0.00002460  0.25001759
   0.74995960  0.25008344 -0.00013861
   0.62481615  0.12510026  0.12527880
   0.87509673  0.37481507  0.12499075
   0.87515857  0.12470947  0.37523813
   0.62493327  0.37508538  0.37497067
   0.49997122 -0.00024028  0.49986221
   0.50022625  0.24995067  0.74999688
   0.75023034 -0.00004120  0.75009564
   0.74996860  0.24984453  0.49995302
   0.62524383  0.12496884  0.62497366
   0.87479851  0.37492333  0.62490946
   0.87482090  0.12531178  0.87498951
   0.62509012  0.37508906  0.87495115
   0.50010200  0.50021311  0.00005847
   0.49999850  0.74986661  0.25001079
   0.75011905  0.50013357  0.25011078
   0.74990110  0.74977287 -0.00018367
   0.62487640  0.62506776  0.12501086
   0.87492583  0.87510396  0.12490242
   0.87511199  0.62489376  0.37508835
   0.62506840  0.87503907  0.37500119
   0.49999935  0.49996343  0.49976808
   0.50014350  0.75016488  0.75006667
   0.75025584  0.49987913  0.74998141
   0.75003751  0.74963496  0.49963311
   0.62522920  0.62497539  0.62519571
   0.87512539  0.87519533  0.62503842
   0.87469493  0.62495949  0.87523784
   0.62511537  0.87489798  0.87475539
unknown system                          
           1
    11.351114   -0.001453   -0.001295
     0.000000   11.351822    0.000436
     0.000000   -0.000000   11.350608
   Ge
    64
Direct configuration=     3
  -0.00029339 -0.00016013  0.00061424
   0.00019996  0.25023146  0.25001145
   0.25015880 -0.00020746  0.24989978
   0.24999642  0.25016334  0.00042876
   0.12484307  0.12526578  0.12501205
   0.37544669  0.37548876  0.12499187
   0.37495751  0.12495721  0.37464200
   0.12457124  0.37490107  0.37559846
  -0.00017818  0.00017889  0.49996313
   0.00025750  0.24998917  0.74997605
   0.25009310 -0.00045543  0.75017310
   0.24929042  0.25047614  0.49962340
   0.12483970  0.12519674  0.62455068
   0.37540768  0.37519670  0.62512244
   0.37487562  0.12568935  0.87490994
   0.12492724  0.37508532  0.87524160
  -0.00018622  0.49982470 -0.00020820
  -0.00024841  0.74956578  0.24981513
   0.24946891  0.50009107  0.24993618
   0.24984975  0.74984651 -0.00060764
   0.12521774  0.62449681  0.12502598
   0.37497490  0.87591360  0.12475426
   0.37506273  0.62481864  0.37478016
   0.12536662  0.87493078  0.37511582
  -0.00091935  0.50052515  0.50032910
  -0.00001174  0.74995839  0.74996082
   0.25024250  0.49988268  0.75072686
   0.24987522  0.74929691  0.50023522
   0.12479953  0.62546510  0.62487029
   0.37493004  0.87504080  0.62537521
   0.37477444  0.62570090  0.87469422
   0.12476910  0.87523881  0.87459323
   0.50012259  0.00005780  0.00010907
   0.50007320  0.24979981  0.25083498
   0.74968802  0.00005171  0.25005294
   0.74991964  0.25016817 -0.00028060
   0.62463102  0.12523090  0.12549968
   0.87520042  0.37463803  0.12499442
   0.87534421  0.12439866  0.37545671
   0.62491055  0.37515195  0.37494188
   0.49992297 -0.00048640  0.49972836
   0.50039117  0.24993891  0.74997805
   0.75044929 -0.00008777  0.75021648
   0.74992800  0.24970422  0.49990189
   0.62548138  0.12493385  0.62496030
   0.87459222  0.37485798  0.62480054
   0.87466273  0.12563544  0.87495364
   0.62516455  0.37517051  0.87492071
   0.50023214  0.50044717  0.00010726
   0.49996014  0.74970186  0.25008529
   0.75020555  0.50027383  0.25023958
   0.74982563  0.74955128 -0.00035596
   0.62475420  0.62513312  0.12500197
   0.87488789  0.87525156  0.12478095
   0.87521727  0.62483787  0.37518475
   0.62518075  0.87506278  0.37501483
   0.50000401  0.49993427  0.49956401
   0.50026981  0.75035018  0.75011400
   0.75048826  0.49977786  0.74995366
   0.75006900  0.74924953  0.49926659
   0.62551524  0.62496009  0.62538114
   0.87526526  0.87541432  0.62509731
   0.87443936  0.62493217  0.87546333
   0.62524852  0.87479806  0.87450448
unknown system                          
           1
    11.351158   -0.002207   -0.001848
     0.000000   11.352339    0.000841
    -0.000000   -0.000000   11.350510
   Ge
    64
Direct configuration=     4
  -0.00042725 -0.00023110  0.00094055
   0.00031855  0.25031819  0.25001610
   0.25025940 -0.00029821  0.24982311
   0.25001219  0.25023246  0.00064987
   0.12477055  0.12539448  0.12498485
   0.37565832  0.37573581  0.12496197
   0.37495118  0.12493692  0.37449857
   0.12439328  0.37488638  0.37592974
  -0.00026051  0.00026238  0.49988979
   0.00037010  0.24999846  0.74997894
   0.25015239 -0.00065556  0.75024642
   0.24891854  0.25072000  0.49948545
   0.12478098  0.12524457  0.62434840
   0.37563876  0.37532154  0.62518245
   0.37481133  0.12602151  0.87486547
   0.12491893  0.37515323  0.87533368
  -0.00027140  0.49973678 -0.00030659
  -0.00039356  0.74934831  0.24974208
   0.24923552  0.50014383  0.24993101
   0.24976500  0.74975445 -0.00089159
   0.12535868  0.62424608  0.12505865
   0.37492386  0.87631371  0.12466484
   0.37511907  0.62477308  0.37462950
   0.12549312  0.87486725  0.37518564
  -0.00136543  0.50079343  0.50051964
  -0.00004024  0.74993994  0.74994269
   0.25036937  0.49985560  0.75111748
   0.24980965  0.74898683  0.50032216
   0.12468230  0.62568648  0.62476357
   0.37484550  0.87509787  0.62554863
   0.37469715  0.62606326  0.87452922
   0.12467109  0.87534409  0.87440283
   0.50020503  0.00011542  0.00014432
   0.50015953  0.24971359  0.25121594
   0.74952974  0.00008839  0.25009461
   0.74992681  0.25025948 -0.00041517
   0.62444644  0.12533242  0.12572815
   0.87527997  0.37448518  0.12497014
   0.87551704  0.12410536  0.37568108
   0.62489176  0.37522726  0.37492251
   0.49989777 -0.00073404  0.49962531
   0.50056142  0.24993471  0.74994717
   0.75065612 -0.00011246  0.75033484
   0.74992798  0.24956593  0.49984847
   0.62570651  0.12490205  0.62494934
   0.87436335  0.37479174  0.62467950
   0.87452087  0.12593049  0.87490771
   0.62527119  0.37523299  0.87491891
   0.50038142  0.50068313  0.00015202
   0.49992496  0.74950773  0.25016979
   0.75028450  0.50042485  0.25035704
   0.74976852  0.74934585 -0.00051075
   0.62463932  0.62515661  0.12497687
   0.87488137  0.87537572  0.12461937
   0.87534866  0.62480681  0.37524358
   0.62529480  0.87508065  0.37504755
   0.49998140  0.49992822  0.49936448
   0.50041213  0.75053106  0.75012868
   0.75074457  0.49965892  0.74994285
   0.75011341  0.74886306  0.49890602
   0.62580796  0.62495984  0.62554882
   0.87535766  0.87566348  0.62513487
   0.87422296  0.62490639  0.87565278
   0.62536617  0.87467499  0.87424078
unknown system                          
           1
    11.351171   -0.002930   -0.002360
     0.000000   11.352872    0.001274
     0.000000   -0.000000   11.350468
   Ge
    64
Direct configuration=     5
  -0.00055652 -0.00029618  0.00130298
   0.00047182  0.25042045  0.25000153
   0.25036645 -0.00037561  0.24975206
   0.25003156  0.25029736  0.00087488
   0.12473172  0.12554395  0.12497955
   0.37589242  0.37599984  0.12491916
   0.37496648  0.12490841  0.37435647
   0.12419664  0.37486212  0.37630803
  -0.00033509  0.00032098  0.49982543
   0.00050193  0.25001688  0.75003038
   0.25026887 -0.00088220  0.75031515
   0.24855130  0.25096800  0.49935331
   0.12473845  0.12528202  0.62415302
   0.37586881  0.37543503  0.62521784
   0.37476316  0.12634717  0.87483023
   0.12487507  0.37524837  0.87539386
  -0.00033732  0.49966708 -0.00040747
  -0.00053810  0.74912053  0.24969024
   0.24896448  0.50025075  0.24988210
   0.24968761  0.74969556 -0.00116721
   0.12547251  0.62403108  0.12506650
   0.37483662  0.87671730  0.12458227
   0.37515140  0.62472995  0.37445618
   0.12564443  0.87474741  0.37525980
  -0.00182618  0.50107816  0.50072728
  -0.00007595  0.74993669  0.74993644
   0.25048450  0.49983999  0.75151469
   0.24976314  0.74868371  0.50040833
   0.12454053  0.62586059  0.62462391
   0.37476508  0.87518618  0.62573185
   0.37463253  0.62640742  0.87435260
   0.12454690  0.87542009  0.87425801
   0.50027048  0.00018127  0.00013835
   0.50024361  0.24967266  0.25160315
   0.74936048  0.00009278  0.25015799
   0.74993622  0.25034469 -0.00054345
   0.62427136  0.12546301  0.12598579
   0.87536153  0.37438681  0.12493005
   0.87563240  0.12383048  0.37591132
   0.62488195  0.37530541  0.37494036
   0.49990099 -0.00094104  0.49951025
   0.50071739  0.24992777  0.74987775
   0.75085564 -0.00007032  0.75045387
   0.74998081  0.24940130  0.49975700
   0.62592502  0.12487084  0.62494436
   0.87416879  0.37474804  0.62460047
   0.87437760  0.12618529  0.87485549
   0.62538395  0.37529338  0.87491545
   0.50055976  0.50093821  0.00019856
   0.49984006  0.74929622  0.25024408
   0.75032631  0.50057848  0.25045578
   0.74970466  0.74913745 -0.00062351
   0.62454589  0.62515740  0.12502423
   0.87485310  0.87550436  0.12444505
   0.87546159  0.62479476  0.37531420
   0.62541223  0.87511622  0.37508913
   0.49998042  0.49992220  0.49920774
   0.50054998  0.75070435  0.75015243
   0.75101783  0.49957369  0.74991023
   0.75020600  0.74846998  0.49854038
   0.62602565  0.62495667  0.62573069
   0.87541915  0.87593880  0.62517751
   0.87404421  0.62489330  0.87584788
   0.62551067  0.87457233  0.87402139
unknown system                          
           1
    11.351253   -0.003853   -0.002847
     0.000000   11.353391    0.002003
     0.000000   -0.000000   11.350543
   Ge
    64
Direct configuration=     6
  -0.00069359 -0.00036379  0.00162321
   0.00063560  0.25050425  0.24998854
   0.25048441 -0.00044083  0.24966525
   0.25010021  0.25036047  0.00110555
   0.12468482  0.12566515  0.12494697
   0.37609044  0.37627571  0.12486189
   0.37496504  0.12486312  0.37424770
   0.12399743  0.37484557  0.37665917
  -0.00041404  0.00038235  0.49976151
   0.00063484  0.25002819  0.75008372
   0.25036899 -0.00114246  0.75038471
   0.24824053  0.25118140  0.49921341
   0.12471216  0.12532571  0.62392596
   0.37611576  0.37552931  0.62524005
   0.37470718  0.12664738  0.87479285
   0.12483158  0.37539462  0.87545316
  -0.00039481  0.49957680 -0.00046840
  -0.00070472  0.74891194  0.24963471
   0.24866545  0.50034602  0.24982082
   0.24961386  0.74962942 -0.00144738
   0.12557642  0.62381312  0.12506404
   0.37473624  0.87712821  0.12450672
   0.37515954  0.62469362  0.37431828
   0.12580329  0.87463456  0.37530080
  -0.00223711  0.50136839  0.50093158
  -0.00011285  0.74996531  0.74988792
   0.25057981  0.49983553  0.75193339
   0.24973109  0.74838294  0.50050103
   0.12437027  0.62602632  0.62448267
   0.37471560  0.87522729  0.62592599
   0.37454814  0.62674336  0.87416288
   0.12441153  0.87550361  0.87408664
   0.50037211  0.00027428  0.00011129
   0.50030292  0.24966032  0.25200209
   0.74920867  0.00013748  0.25019138
   0.74993986  0.25045005 -0.00068393
   0.62409415  0.12558720  0.12622946
   0.87541424  0.37429148  0.12489159
   0.87573920  0.12355381  0.37616373
   0.62487682  0.37538366  0.37495710
   0.49989803 -0.00113042  0.49945523
   0.50087924  0.24989556  0.74979101
   0.75102392  0.00000921  0.75056816
   0.75001735  0.24924677  0.49969522
   0.62611012  0.12482491  0.62493470
   0.87397796  0.37473016  0.62451677
   0.87423332  0.12640949  0.87478472
   0.62552458  0.37534005  0.87492011
   0.50071164  0.50116298  0.00028370
   0.49975432  0.74904852  0.25037846
   0.75037257  0.50072877  0.25056516
   0.74963939  0.74894251 -0.00074620
   0.62444453  0.62523054  0.12506108
   0.87482141  0.87562438  0.12427377
   0.87558308  0.62477215  0.37536921
   0.62552269  0.87517671  0.37513896
   0.50000171  0.49995633  0.49903247
   0.50069134  0.75085608  0.75015897
   0.75124777  0.49946833  0.74987955
   0.75026819  0.74807938  0.49820054
   0.62623412  0.62496178  0.62593174
   0.87546615  0.87623650  0.62525110
   0.87391059  0.62490878  0.87605619
   0.62566030  0.87448349  0.87384583
unknown system                          
           1
    11.351355   -0.004636   -0.003441
     0.000000   11.353952    0.002755
     0.000000   -0.000000   11.350684
   Ge
    64
Direct configuration=     7
  -0.00082125 -0.00043191  0.00196803
   0.00083611  0.25058729  0.24993063
   0.25063419 -0.00049984  0.24955350
   0.25016057  0.25046305  0.00129911
   0.12462887  0.12577000  0.12492684
   0.37627376  0.37653555  0.12478440
   0.37494001  0.12480752  0.37417207
   0.12383889  0.37480866  0.37700497
  -0.00048931  0.00046125  0.49969689
   0.00073406  0.25002141  0.75013696
   0.25046579 -0.00137236  0.75043361
   0.24795725  0.25141485  0.49908412
   0.12471055  0.12535320  0.62372968
   0.37637492  0.37558690  0.62528086
   0.37462369  0.12694035  0.87478900
   0.12478705  0.37550289  0.87552849
  -0.00041271  0.49948447 -0.00053338
  -0.00083582  0.74869901  0.24957452
   0.24839394  0.50044649  0.24974030
   0.24951541  0.74954838 -0.00177598
   0.12567232  0.62359236  0.12504819
   0.37464487  0.87754692  0.12441448
   0.37515700  0.62464528  0.37420754
   0.12593810  0.87453435  0.37532119
  -0.00261805  0.50160581  0.50117141
  -0.00012549  0.74999942  0.74984480
   0.25066338  0.49982137  0.75235552
   0.24970262  0.74806888  0.50059723
   0.12422336  0.62619805  0.62440174
   0.37465300  0.87527745  0.62609609
   0.37447427  0.62703407  0.87397294
   0.12425268  0.87560392  0.87392701
   0.50047581  0.00037381  0.00003574
   0.50036133  0.24965118  0.25237205
   0.74901016  0.00016706  0.25026031
   0.74993175  0.25060028 -0.00083191
   0.62393872  0.12573465  0.12647978
   0.87548031  0.37423025  0.12484977
   0.87583983  0.12329126  0.37645600
   0.62485374  0.37547525  0.37497889
   0.49987399 -0.00134282  0.49943661
   0.50103684  0.24985021  0.74971612
   0.75119039  0.00012627  0.75069102
   0.75008531  0.24910676  0.49962726
   0.62626841  0.12476677  0.62487599
   0.87377951  0.37473393  0.62443630
   0.87405913  0.12662421  0.87469704
   0.62566015  0.37536763  0.87494771
   0.50082411  0.50139223  0.00038938
   0.49967087  0.74878233  0.25051379
   0.75040885  0.50088324  0.25066370
   0.74954292  0.74876112 -0.00084409
   0.62433401  0.62528140  0.12511991
   0.87481080  0.87575237  0.12408597
   0.87570569  0.62473319  0.37542024
   0.62564865  0.87521008  0.37515269
   0.50006743  0.49998691  0.49883322
   0.50084379  0.75101498  0.75019855
   0.75147218  0.49938245  0.74989066
   0.75036995  0.74767474  0.49785349
   0.62644599  0.62498803  0.62613896
   0.87550470  0.87651453  0.62531780
   0.87378966  0.62492939  0.87628571
   0.62580775  0.87436813  0.87369780
unknown system                          
           1
    11.351411   -0.005447   -0.004105
     0.000000   11.354600    0.003585
     0.000000   -0.000000   11.350814
   Ge
    64
Direct configuration=     8
  -0.00097057 -0.00049611  0.00231558
   0.00104193  0.25067979  0.24986774
   0.25075359 -0.00057094  0.24947350
   0.25026219  0.25054871  0.00148941
   0.12458278  0.12590213  0.12492596
   0.37643387  0.37679974  0.12473513
   0.37489784  0.12477168  0.37412141
   0.12366835  0.37476707  0.37739034
  -0.00059448  0.00052205  0.49964220
   0.00078383  0.25001385  0.75018152
   0.25056249 -0.00159065  0.75048727
   0.24770731  0.25165291  0.49896267
   0.12471383  0.12538515  0.62353021
   0.37663339  0.37571031  0.62532207
   0.37452974  0.12720826  0.87470169
   0.12477463  0.37563088  0.87560760
  -0.00045508  0.49937692 -0.00057794
  -0.00096161  0.74848842  0.24955954
   0.24811341  0.50059506  0.24968634
   0.24940937  0.74946768 -0.00210138
   0.12575287  0.62339734  0.12498330
   0.37452372  0.87792505  0.12427673
   0.37515741  0.62462950  0.37406972
   0.12605648  0.87440085  0.37532927
  -0.00301477  0.50183835  0.50138627
  -0.00016321  0.75005471  0.74983099
   0.25073751  0.49981113  0.75276688
   0.24965935  0.74778865  0.50068818
   0.12409414  0.62640069  0.62430367
   0.37457555  0.87532146  0.62620971
   0.37440105  0.62734148  0.87376841
   0.12411357  0.87566945  0.87377628
   0.50058801  0.00048233 -0.00001951
   0.50039398  0.24965257  0.25274516
   0.74880026  0.00021015  0.25033715
   0.74991846  0.25076769 -0.00099044
   0.62380501  0.12585268  0.12671416
   0.87559745  0.37416057  0.12475484
   0.87596151  0.12304779  0.37674624
   0.62484642  0.37556268  0.37498471
   0.49985021 -0.00153195  0.49941854
   0.50121418  0.24980513  0.74964204
   0.75136847  0.00022644  0.75074141
   0.75012795  0.24897272  0.49957092
   0.62642616  0.12472082  0.62484595
   0.87360325  0.37476387  0.62434906
   0.87389459  0.12685483  0.87460737
   0.62578008  0.37536891  0.87500492
   0.50087152  0.50165703  0.00050847
   0.49958364  0.74849816  0.25062567
   0.75044819  0.50101067  0.25075846
   0.74943442  0.74857067 -0.00090684
   0.62423674  0.62536283  0.12520844
   0.87479134  0.87585128  0.12392094
   0.87579512  0.62468396  0.37548623
   0.62579356  0.87524534  0.37518806
   0.50011198  0.49996883  0.49866561
   0.50103278  0.75114283  0.75023226
   0.75169144  0.49929871  0.74990065
   0.75051094  0.74727714  0.49752754
   0.62668913  0.62501073  0.62638898
   0.87549935  0.87679686  0.62542513
   0.87364244  0.62499612  0.87646799
   0.62599385  0.87425132  0.87355405
unknown system                          
           1
    11.351538   -0.006045   -0.004638
     0.000000   11.355224    0.004384
     0.000000    0.000000   11.350899
   Ge
    64
Direct configuration=     9
  -0.00113277 -0.00054697  0.00264144
   0.00126139  0.25077602  0.24982706
   0.25087189 -0.00062164  0.24941803
   0.25035330  0.25062198  0.00167814
   0.12453260  0.12603096  0.12495678
   0.37656637  0.37708453  0.12470420
   0.37483885  0.12475811  0.37410144
   0.12353198  0.37469967  0.37777341
  -0.00072065  0.00057740  0.49959352
   0.00081077  0.24999339  0.75023438
   0.25067292 -0.00181522  0.75059633
   0.24749375  0.25186554  0.49880960
   0.12473328  0.12542928  0.62333023
   0.37685426  0.37582515  0.62536938
   0.37439471  0.12747064  0.87460413
   0.12476945  0.37571875  0.87567183
  -0.00048721  0.49930620 -0.00059613
  -0.00109934  0.74830464  0.24950981
   0.24784649  0.50071753  0.24963732
   0.24928607  0.74940424 -0.00244071
   0.12580819  0.62320167  0.12491787
   0.37444013  0.87825554  0.12414111
   0.37512512  0.62459444  0.37395507
   0.12614357  0.87427274  0.37534555
  -0.00345608  0.50208945  0.50161346
  -0.00016110  0.75008908  0.74982304
   0.25079958  0.49975225  0.75314894
   0.24963595  0.74751142  0.50080249
   0.12400270  0.62659168  0.62420034
   0.37449421  0.87540217  0.62631589
   0.37435707  0.62764819  0.87358250
   0.12396524  0.87570439  0.87366035
   0.50068202  0.00055219 -0.00010024
   0.50043177  0.24969514  0.25310015
   0.74860696  0.00029563  0.25044554
   0.74989641  0.25091253 -0.00112663
   0.62369483  0.12596998  0.12691268
   0.87571505  0.37408188  0.12465913
   0.87609887  0.12283118  0.37703415
   0.62482410  0.37562572  0.37497707
   0.49981341 -0.00173347  0.49940943
   0.50134319  0.24976869  0.74960492
   0.75155297  0.00034731  0.75080449
   0.75015817  0.24880818  0.49946348
   0.62654630  0.12466472  0.62481181
   0.87343824  0.37479027  0.62426697
   0.87370834  0.12704916  0.87451573
   0.62593940  0.37538658  0.87505469
   0.50090670  0.50190986  0.00062418
   0.49950798  0.74825439  0.25074582
   0.75045990  0.50113644  0.25086514
   0.74933820  0.74838351 -0.00098610
   0.62415554  0.62542976  0.12532007
   0.87480497  0.87596381  0.12375790
   0.87589217  0.62464396  0.37555767
   0.62595160  0.87528093  0.37520337
   0.50013967  0.49992089  0.49850742
   0.50123389  0.75125096  0.75028033
   0.75188900  0.49919003  0.74994928
   0.75066246  0.74688584  0.49722773
   0.62694003  0.62498112  0.62666536
   0.87548677  0.87705859  0.62553511
   0.87349307  0.62507832  0.87664206
   0.62619625  0.87411135  0.87342108
unknown system                          
           1
    11.351630   -0.006519   -0.005202
     0.000000   11.355857    0.005411
    -0.000000    0.000000   11.351002
   Ge
    64
Direct configuration=    10
  -0.00131690 -0.00060336  0.00294739
   0.00145891  0.25087659  0.24974855
   0.25098230 -0.00070997  0.24936477
   0.25042345  0.25069716  0.00188279
   0.12450858  0.12619551  0.12501981
   0.37669224  0.37737921  0.12467562
   0.37481226  0.12472962  0.37408463
   0.12342308  0.37467315  0.37815361
  -0.00086544  0.00067325  0.49960046
   0.00085715  0.24999753  0.75030633
   0.25077816 -0.00198578  0.75072235
   0.24731984  0.25208313  0.49866472
   0.12474947  0.12549607  0.62313084
   0.37707042  0.37593877  0.62542908
   0.37426893  0.12766825  0.87453078
   0.12476789  0.37581373  0.87573416
  -0.00052691  0.49921641 -0.00062497
  -0.00127028  0.74813283  0.24943888
   0.24757425  0.50084436  0.24960787
   0.24916147  0.74939341 -0.00278213
   0.12589826  0.62305804  0.12484396
   0.37434976  0.87859360  0.12403995
   0.37507699  0.62455404  0.37380027
   0.12619945  0.87417845  0.37533456
  -0.00386551  0.50237484  0.50183708
  -0.00015528  0.75013578  0.74983664
   0.25085481  0.49971480  0.75352494
   0.24962946  0.74722182  0.50093024
   0.12396660  0.62672655  0.62410469
   0.37436403  0.87548166  0.62639153
   0.37431922  0.62796026  0.87339745
   0.12382487  0.87573106  0.87353785
   0.50076357  0.00064446 -0.00019191
   0.50046996  0.24972531  0.25346793
   0.74841750  0.00039276  0.25051787
   0.74985681  0.25105468 -0.00127870
   0.62361274  0.12606806  0.12710073
   0.87581927  0.37405443  0.12462010
   0.87623050  0.12265951  0.37735561
   0.62478270  0.37567033  0.37497633
   0.49978421 -0.00193355  0.49942861
   0.50146575  0.24975683  0.74958508
   0.75169137  0.00048370  0.75087297
   0.75020739  0.24863793  0.49937763
   0.62664833  0.12463134  0.62474312
   0.87327957  0.37484686  0.62422646
   0.87353652  0.12726524  0.87445491
   0.62610433  0.37539808  0.87509387
   0.50094422  0.50215440  0.00072157
   0.49942568  0.74803061  0.25087351
   0.75043407  0.50128387  0.25098869
   0.74922693  0.74819912 -0.00105832
   0.62405575  0.62543491  0.12544168
   0.87480238  0.87604434  0.12362988
   0.87604447  0.62457109  0.37564534
   0.62609603  0.87530083  0.37523156
   0.50013273  0.49989248  0.49835450
   0.50143824  0.75134595  0.75033134
   0.75210304  0.49905894  0.75002571
   0.75082716  0.74649677  0.49692599
   0.62712761  0.62495476  0.62688121
   0.87542609  0.87734295  0.62560937
   0.87333654  0.62516376  0.87683699
   0.62642907  0.87396839  0.87328293
unknown system                          
           1
    11.351767   -0.007025   -0.005862
     0.000000   11.356523    0.006222
     0.000000    0.000000   11.351102
   Ge
    64
Direct configuration=    11
  -0.00147721 -0.00067646  0.00321920
   0.00164565  0.25098712  0.24964435
   0.25107102 -0.00077948  0.24929226
   0.25047616  0.25077913  0.00211436
   0.12449324  0.12632718  0.12506674
   0.37680646  0.37768090  0.12464560
   0.37479652  0.12468158  0.37407305
   0.12331830  0.37463082  0.37850054
  -0.00099282  0.00081637  0.49960664
   0.00090568  0.24999295  0.75036724
   0.25092600 -0.00214198  0.75086268
   0.24712054  0.25229247  0.49851651
   0.12475787  0.12561311  0.62290278
   0.37728043  0.37600607  0.62547533
   0.37416456  0.12782988  0.87446675
   0.12477218  0.37591133  0.87584162
  -0.00058024  0.49908895 -0.00064997
  -0.00145937  0.74794499  0.24938657
   0.24731104  0.50099233  0.24958121
   0.24901698  0.74940837 -0.00316839
   0.12601887  0.62292589  0.12475001
   0.37425664  0.87894100  0.12394434
   0.37506632  0.62451602  0.37362005
   0.12624517  0.87414352  0.37533382
  -0.00424717  0.50266853  0.50208582
  -0.00012870  0.75021866  0.74985313
   0.25090361  0.49968747  0.75390287
   0.24967505  0.74693812  0.50104058
   0.12389917  0.62684102  0.62398318
   0.37421693  0.87554692  0.62647884
   0.37431029  0.62827967  0.87323363
   0.12367318  0.87578828  0.87340290
   0.50081892  0.00074666 -0.00031067
   0.50050297  0.24975064  0.25381454
   0.74824190  0.00051821  0.25057940
   0.74985743  0.25119614 -0.00141546
   0.62353704  0.12617988  0.12732718
   0.87592683  0.37398919  0.12455977
   0.87632574  0.12248393  0.37769143
   0.62475827  0.37569827  0.37498473
   0.49973725 -0.00212402  0.49948641
   0.50163135  0.24974730  0.74952609
   0.75183919  0.00061822  0.75093548
   0.75024340  0.24842741  0.49927740
   0.62677220  0.12458203  0.62469180
   0.87310850  0.37488795  0.62418807
   0.87338970  0.12750633  0.87437620
   0.62622498  0.37543839  0.87514815
   0.50094574  0.50238528  0.00081858
   0.49931509  0.74784095  0.25097044
   0.75040050  0.50143306  0.25109774
   0.74919403  0.74801487 -0.00114018
   0.62395638  0.62543320  0.12556680
   0.87481786  0.87612078  0.12350832
   0.87620500  0.62452840  0.37571555
   0.62623313  0.87531891  0.37523347
   0.50013894  0.49986762  0.49825168
   0.50159490  0.75141828  0.75034219
   0.75231191  0.49894511  0.75008253
   0.75099276  0.74612303  0.49666345
   0.62729511  0.62489403  0.62709868
   0.87535575  0.87763425  0.62566350
   0.87322698  0.62526048  0.87706363
   0.62661843  0.87379621  0.87315366
unknown system                          
           1
    11.351979   -0.007566   -0.006408
     0.000000   11.357258    0.007153
     0.000000    0.000000   11.351329
   Ge
    64
Direct configuration=    12
  -0.00161982 -0.00071210  0.00350389
   0.00184546  0.25111143  0.24953924
   0.25114037 -0.00084856  0.24917965
   0.25052151  0.25085368  0.00235841
   0.12449647  0.12646735  0.12512649
   0.37693569  0.37795698  0.12461675
   0.37477389  0.12460916  0.37407351
   0.12323066  0.37462577  0.37883943
  -0.00109528  0.00099147  0.49960942
   0.00096847  0.24996726  0.75044188
   0.25108276 -0.00224802  0.75103662
   0.24689992  0.25249925  0.49835381
   0.12478810  0.12572095  0.62268064
   0.37747796  0.37609847  0.62546628
   0.37410274  0.12800006  0.87441165
   0.12474421  0.37601418  0.87595274
  -0.00069331  0.49895164 -0.00064976
  -0.00164131  0.74779169  0.24937947
   0.24705953  0.50114751  0.24958313